
     Program PWSCF v.6.6 starts on 23Dec2021 at  6: 3:39 

     This program is part of the open-source Quantum ESPRESSO suite
     for quantum simulation of materials; please cite
         "P. Giannozzi et al., J. Phys.:Condens. Matter 21 395502 (2009);
         "P. Giannozzi et al., J. Phys.:Condens. Matter 29 465901 (2017);
          URL http://www.quantum-espresso.org", 
     in publications or presentations arising from this work. More details at
     http://www.quantum-espresso.org/quote

     Parallel version (MPI & OpenMP), running on     128 processor cores
     Number of MPI processes:               128
     Threads/MPI process:                     1

     MPI processes distributed on     1 nodes
     R & G space division:  proc/nbgrp/npool/nimage =     128
     Fft bands division:     nmany     =       1
     Waiting for input...
     Reading input from standard input

     Current dimensions of program PWSCF are:
     Max number of different atomic species (ntypx) = 10
     Max number of k-points (npk) =  40000
     Max angular momentum in pseudopotentials (lmaxx) =  3
     Message from routine iosys:
     restart disabled: needed files not found
     file C.pbe-n-kjpaw_psl.1.0.0.UPF: wavefunction(s)  2S 2P renormalized
     file H.pbe-kjpaw_psl.1.0.0.UPF: wavefunction(s)  1S renormalized

     Subspace diagonalization in iterative solution of the eigenvalue problem:
     a serial algorithm will be used

 
     Parallelization info
     --------------------
     sticks:   dense  smooth     PW     G-vecs:    dense   smooth      PW
     Min         299     119     29                44165    11165    1391
     Max         300     120     30                44172    11174    1402
     Sum       38393   15329   3833              5653693  1429635  178925
 


     bravais-lattice index     =            0
     lattice parameter (alat)  =      28.3459  a.u.
     unit-cell volume          =   22775.6289 (a.u.)^3
     number of atoms/cell      =           24
     number of atomic types    =            2
     number of electrons       =        60.00
     number of Kohn-Sham states=           30
     kinetic-energy cutoff     =      60.0000  Ry
     charge density cutoff     =     600.0000  Ry
     convergence threshold     =      1.0E-08
     mixing beta               =       0.7000
     number of iterations used =            8  plain     mixing
     Exchange-correlation= SLA PW PBX PBC
                           (   1   4   3   4   0   0   0)

     celldm(1)=  28.345892  celldm(2)=   0.000000  celldm(3)=   0.000000
     celldm(4)=   0.000000  celldm(5)=   0.000000  celldm(6)=   0.000000

     crystal axes: (cart. coord. in units of alat)
               a(1) = (   1.000000   0.000000   0.000000 )  
               a(2) = (   0.000000   1.000000   0.000000 )  
               a(3) = (   0.000000   0.000000   1.000000 )  

     reciprocal axes: (cart. coord. in units 2 pi/alat)
               b(1) = (  1.000000  0.000000  0.000000 )  
               b(2) = (  0.000000  1.000000  0.000000 )  
               b(3) = (  0.000000  0.000000  1.000000 )  


     PseudoPot. # 1 for C  read from file:
     /home/k0151/k015124/src/pseudo/C.pbe-n-kjpaw_psl.1.0.0.UPF
     MD5 check sum: 5f16ad9a65e90284d1d834d4ab3b0f7d
     Pseudo is Projector augmented-wave + core cor, Zval =  4.0
     Generated using "atomic" code by A. Dal Corso v.6.3
     Shape of augmentation charge: PSQ
     Using radial grid of 1073 points,  4 beta functions with: 
                l(1) =   0
                l(2) =   0
                l(3) =   1
                l(4) =   1
     Q(r) pseudized with 0 coefficients 


     PseudoPot. # 2 for H  read from file:
     /home/k0151/k015124/src/pseudo/H.pbe-kjpaw_psl.1.0.0.UPF
     MD5 check sum: d81a744832360e4a8af0b0b5b123bc2a
     Pseudo is Projector augmented-wave, Zval =  1.0
     Generated using "atomic" code by A. Dal Corso v.6.3MaX
     Shape of augmentation charge: PSQ
     Using radial grid of  929 points,  2 beta functions with: 
                l(1) =   0
                l(2) =   0
     Q(r) pseudized with 0 coefficients 


     atomic species   valence    mass     pseudopotential
        C              4.00    12.01100     C ( 1.00)
        H              1.00     1.00800     H ( 1.00)

     No symmetry found


                                    s                        frac. trans.

      isym =  1     identity                                     

 cryst.   s( 1) = (     1          0          0      )
                  (     0          1          0      )
                  (     0          0          1      )

 cart.    s( 1) = (  1.0000000  0.0000000  0.0000000 )
                  (  0.0000000  1.0000000  0.0000000 )
                  (  0.0000000  0.0000000  1.0000000 )


   Cartesian axes

     site n.     atom                  positions (alat units)
         1           C   tau(   1) = (   0.5926667   0.5000000   0.5000000  )
         2           C   tau(   2) = (   0.5466667   0.4200000   0.5000000  )
         3           C   tau(   3) = (   0.4533333   0.4200000   0.5000000  )
         4           C   tau(   4) = (   0.4073333   0.5000000   0.5000000  )
         5           C   tau(   5) = (   0.4533333   0.5800000   0.5000000  )
         6           C   tau(   6) = (   0.5466667   0.5800000   0.5000000  )
         7           H   tau(   7) = (   0.6593333   0.5000000   0.5000000  )
         8           H   tau(   8) = (   0.5800000   0.3620000   0.5000000  )
         9           H   tau(   9) = (   0.4200000   0.3620000   0.5000000  )
        10           H   tau(  10) = (   0.3406667   0.5000000   0.5000000  )
        11           H   tau(  11) = (   0.4200000   0.6380000   0.5000000  )
        12           H   tau(  12) = (   0.5800000   0.6380000   0.5000000  )
        13           C   tau(  13) = (   0.7800000   0.5466667   0.7333333  )
        14           C   tau(  14) = (   0.7800000   0.4533333   0.7333333  )
        15           C   tau(  15) = (   0.7000000   0.4073333   0.7333333  )
        16           C   tau(  16) = (   0.6200000   0.4533333   0.7333333  )
        17           C   tau(  17) = (   0.6200000   0.5466667   0.7333333  )
        18           C   tau(  18) = (   0.7000000   0.5926667   0.7333333  )
        19           H   tau(  19) = (   0.8380000   0.5800000   0.7333333  )
        20           H   tau(  20) = (   0.8380000   0.4200000   0.7333333  )
        21           H   tau(  21) = (   0.7000000   0.3406667   0.7333333  )
        22           H   tau(  22) = (   0.5620000   0.4206667   0.7333333  )
        23           H   tau(  23) = (   0.5620000   0.5800000   0.7333333  )
        24           H   tau(  24) = (   0.7000000   0.6593333   0.7333333  )

   Crystallographic axes

     site n.     atom                  positions (cryst. coord.)
         1           C   tau(   1) = (  0.5926667  0.5000000  0.5000000  )
         2           C   tau(   2) = (  0.5466667  0.4200000  0.5000000  )
         3           C   tau(   3) = (  0.4533333  0.4200000  0.5000000  )
         4           C   tau(   4) = (  0.4073333  0.5000000  0.5000000  )
         5           C   tau(   5) = (  0.4533333  0.5800000  0.5000000  )
         6           C   tau(   6) = (  0.5466667  0.5800000  0.5000000  )
         7           H   tau(   7) = (  0.6593333  0.5000000  0.5000000  )
         8           H   tau(   8) = (  0.5800000  0.3620000  0.5000000  )
         9           H   tau(   9) = (  0.4200000  0.3620000  0.5000000  )
        10           H   tau(  10) = (  0.3406667  0.5000000  0.5000000  )
        11           H   tau(  11) = (  0.4200000  0.6380000  0.5000000  )
        12           H   tau(  12) = (  0.5800000  0.6380000  0.5000000  )
        13           C   tau(  13) = (  0.7800000  0.5466667  0.7333333  )
        14           C   tau(  14) = (  0.7800000  0.4533333  0.7333333  )
        15           C   tau(  15) = (  0.7000000  0.4073333  0.7333333  )
        16           C   tau(  16) = (  0.6200000  0.4533333  0.7333333  )
        17           C   tau(  17) = (  0.6200000  0.5466667  0.7333333  )
        18           C   tau(  18) = (  0.7000000  0.5926667  0.7333333  )
        19           H   tau(  19) = (  0.8380000  0.5800000  0.7333333  )
        20           H   tau(  20) = (  0.8380000  0.4200000  0.7333333  )
        21           H   tau(  21) = (  0.7000000  0.3406667  0.7333333  )
        22           H   tau(  22) = (  0.5620000  0.4206667  0.7333333  )
        23           H   tau(  23) = (  0.5620000  0.5800000  0.7333333  )
        24           H   tau(  24) = (  0.7000000  0.6593333  0.7333333  )

     number of k points=     1
                       cart. coord. in units 2pi/alat
        k(    1) = (   0.0000000   0.0000000   0.0000000), wk =   2.0000000

                       cryst. coord.
        k(    1) = (   0.0000000   0.0000000   0.0000000), wk =   2.0000000

     Dense  grid:  5653693 G-vectors     FFT dimensions: ( 225, 225, 225)

     Smooth grid:  1429635 G-vectors     FFT dimensions: ( 144, 144, 144)

     Dynamical RAM for                 wfc:       0.64 MB

     Dynamical RAM for     wfc (w. buffer):       0.64 MB

     Dynamical RAM for           str. fact:       1.35 MB

     Dynamical RAM for           local pot:       0.00 MB

     Dynamical RAM for          nlocal pot:       2.56 MB

     Dynamical RAM for                qrad:       1.12 MB

     Dynamical RAM for          rho,v,vnew:       4.34 MB

     Dynamical RAM for               rhoin:       1.45 MB

     Dynamical RAM for            rho*nmix:      10.78 MB

     Dynamical RAM for           G-vectors:       2.61 MB

     Dynamical RAM for          h,s,v(r/c):       0.16 MB

     Dynamical RAM for          <psi|beta>:       0.05 MB

     Dynamical RAM for                 psi:       1.28 MB

     Dynamical RAM for                hpsi:       1.28 MB

     Dynamical RAM for                spsi:       1.28 MB

     Dynamical RAM for      wfcinit/wfcrot:       1.30 MB

     Dynamical RAM for           addusdens:      37.07 MB

     Estimated static dynamical RAM per process >      30.73 MB

     Estimated max dynamical RAM per process >      86.27 MB

     Estimated total dynamical RAM >      10.78 GB
     Cannot read rho : file not found

     Initial potential from superposition of free atoms

     starting charge   59.99939, renormalised to   60.00000

     negative rho (up, down):  1.163E-04 0.000E+00
     Message from routine qexsd_readschema :
     xml data file ./tmp/ben2.save/data-file-schema.xml not found
     Cannot read wfcs: file not found
     Starting wfcs are   60 randomized atomic wfcs
     Checking if some PAW data can be deallocated... 
       PAW data deallocated on   62 nodes for type:  1
       PAW data deallocated on   66 nodes for type:  2

     total cpu time spent up to now is        8.3 secs

     Self-consistent Calculation

     iteration #  1     ecut=    60.00 Ry     beta= 0.70
     Davidson diagonalization with overlap
     ethr =  1.00E-05,  avg # of iterations =  7.0

     negative rho (up, down):  2.029E-04 0.000E+00

     total cpu time spent up to now is        9.5 secs

          k = 0.0000 0.0000 0.0000     band energies (ev):

   -26.8596 -26.8408 -24.1715 -24.1698 -24.0076 -23.9971 -20.5500 -20.5304
   -20.4506 -20.4402 -18.3889 -18.3776 -16.8560 -16.8517 -16.6315 -16.6185
   -15.8288 -15.8251 -15.6954 -15.6824 -13.9053 -13.8882 -13.7865 -13.7851
   -13.5198 -13.3474 -10.8621 -10.8223 -10.6490 -10.6110

     occupation numbers 
     1.0000   1.0000   1.0000   1.0000   1.0000   1.0000   1.0000   1.0000
     1.0000   1.0000   1.0000   1.0000   1.0000   1.0000   1.0000   1.0000
     1.0000   1.0000   1.0000   1.0000   1.0000   1.0000   1.0000   1.0000
     1.0000   1.0000   1.0000   1.0000   1.0000   1.0000

     highest occupied level (ev):   -10.6110

!    total energy              =    -234.41109880 Ry

     total all-electron energy =      -927.580213 Ry
     estimated scf accuracy    <       3.39793371 Ry

     The total energy is the sum of the following terms:
     one-electron contribution =    -774.69779970 Ry
     hartree contribution      =     394.08982041 Ry
     xc contribution           =     -65.27526317 Ry
     ewald contribution        =     273.94392509 Ry
     scf correction            =      11.81639943 Ry
     one-center paw contrib.   =     -74.28818086 Ry
      -> PAW hartree energy AE =       9.23760519 Ry
      -> PAW hartree energy PS =      -9.22663923 Ry
      -> PAW xc energy AE      =     -10.64388253 Ry
      -> PAW xc energy PS      =       4.44196109 Ry
      -> total E_H with PAW    =     394.10078636 Ry
      -> total E_XC with PAW   =     -71.47718461 Ry

     iteration #  2     ecut=    60.00 Ry     beta= 0.70
     Davidson diagonalization with overlap
     ethr =  5.66E-03,  avg # of iterations =  2.0

     negative rho (up, down):  2.396E-04 0.000E+00

     total cpu time spent up to now is       10.5 secs

          k = 0.0000 0.0000 0.0000     band energies (ev):

   -18.9432 -18.9076 -16.7088 -16.6617 -16.6548 -16.5971 -13.5985 -13.5592
   -13.5289 -13.5063 -11.7015 -11.6980 -10.8096 -10.8058  -8.7006  -8.6518
    -8.6512  -8.6291  -8.6066  -8.5785  -7.1724  -6.8975  -6.6498  -6.6451
    -6.5478  -6.5429  -4.4891  -4.4851  -4.2817  -4.1223

     occupation numbers 
     1.0000   1.0000   1.0000   1.0000   1.0000   1.0000   1.0000   1.0000
     1.0000   1.0000   1.0000   1.0000   1.0000   1.0000   1.0000   1.0000
     1.0000   1.0000   1.0000   1.0000   1.0000   1.0000   1.0000   1.0000
     1.0000   1.0000   1.0000   1.0000   1.0000   1.0000

     highest occupied level (ev):    -4.1223

!    total energy              =    -235.14360111 Ry

     total all-electron energy =      -928.312716 Ry
     estimated scf accuracy    <       0.49646345 Ry

     The total energy is the sum of the following terms:
     one-electron contribution =    -750.77459287 Ry
     hartree contribution      =     386.27752327 Ry
     xc contribution           =     -64.53698239 Ry
     ewald contribution        =     273.94392509 Ry
     scf correction            =      -5.92977033 Ry
     one-center paw contrib.   =     -74.12370388 Ry
      -> PAW hartree energy AE =       9.31856563 Ry
      -> PAW hartree energy PS =      -9.30903642 Ry
      -> PAW xc energy AE      =     -10.64518182 Ry
      -> PAW xc energy PS      =       4.45872212 Ry
      -> total E_H with PAW    =     386.28705248 Ry
      -> total E_XC with PAW   =     -70.72344208 Ry

     iteration #  3     ecut=    60.00 Ry     beta= 0.70
     Davidson diagonalization with overlap
     ethr =  8.27E-04,  avg # of iterations =  2.0

     negative rho (up, down):  2.230E-04 0.000E+00

     total cpu time spent up to now is       11.2 secs

          k = 0.0000 0.0000 0.0000     band energies (ev):

   -21.2559 -21.2251 -18.5507 -18.5455 -18.4427 -18.4392 -15.0076 -14.9759
   -14.9332 -14.9255 -13.1963 -13.1885 -11.5543 -11.5511 -10.7446 -10.7414
   -10.4001 -10.3972 -10.3081 -10.3039  -9.0589  -8.8033  -8.2785  -8.2773
    -8.1749  -8.1733  -6.2929  -6.2444  -6.0604  -5.9761

     occupation numbers 
     1.0000   1.0000   1.0000   1.0000   1.0000   1.0000   1.0000   1.0000
     1.0000   1.0000   1.0000   1.0000   1.0000   1.0000   1.0000   1.0000
     1.0000   1.0000   1.0000   1.0000   1.0000   1.0000   1.0000   1.0000
     1.0000   1.0000   1.0000   1.0000   1.0000   1.0000

     highest occupied level (ev):    -5.9761

!    total energy              =    -235.23391710 Ry

     total all-electron energy =      -928.403032 Ry
     estimated scf accuracy    <       0.01347006 Ry

     The total energy is the sum of the following terms:
     one-electron contribution =    -758.64720468 Ry
     hartree contribution      =     387.55346542 Ry
     xc contribution           =     -64.72532310 Ry
     ewald contribution        =     273.94392509 Ry
     scf correction            =       0.69718321 Ry
     one-center paw contrib.   =     -74.05596302 Ry
      -> PAW hartree energy AE =       9.86325391 Ry
      -> PAW hartree energy PS =      -9.85410762 Ry
      -> PAW xc energy AE      =     -10.76811394 Ry
      -> PAW xc energy PS      =       4.58749587 Ry
      -> total E_H with PAW    =     387.56261171 Ry
      -> total E_XC with PAW   =     -70.90594117 Ry

     iteration #  4     ecut=    60.00 Ry     beta= 0.70
     Davidson diagonalization with overlap
     ethr =  2.25E-05,  avg # of iterations =  2.0

     negative rho (up, down):  2.260E-04 0.000E+00

     total cpu time spent up to now is       12.0 secs

          k = 0.0000 0.0000 0.0000     band energies (ev):

   -20.9115 -20.8808 -18.2721 -18.2625 -18.1605 -18.1455 -14.7592 -14.7273
   -14.6863 -14.6769 -12.8969 -12.8896 -11.3229 -11.3192 -10.4784 -10.4770
   -10.0930 -10.0767  -9.9930  -9.9780  -8.8043  -8.5505  -7.9994  -7.9961
    -7.8949  -7.8915  -6.0570  -6.0207  -5.8304  -5.7325

     occupation numbers 
     1.0000   1.0000   1.0000   1.0000   1.0000   1.0000   1.0000   1.0000
     1.0000   1.0000   1.0000   1.0000   1.0000   1.0000   1.0000   1.0000
     1.0000   1.0000   1.0000   1.0000   1.0000   1.0000   1.0000   1.0000
     1.0000   1.0000   1.0000   1.0000   1.0000   1.0000

     highest occupied level (ev):    -5.7325

!    total energy              =    -235.23556566 Ry

     total all-electron energy =      -928.404680 Ry
     estimated scf accuracy    <       0.00050727 Ry

     The total energy is the sum of the following terms:
     one-electron contribution =    -758.41483198 Ry
     hartree contribution      =     387.82870794 Ry
     xc contribution           =     -64.75166093 Ry
     ewald contribution        =     273.94392509 Ry
     scf correction            =       0.20440358 Ry
     one-center paw contrib.   =     -74.04610935 Ry
      -> PAW hartree energy AE =       9.98615425 Ry
      -> PAW hartree energy PS =      -9.97704971 Ry
      -> PAW xc energy AE      =     -10.79600717 Ry
      -> PAW xc energy PS      =       4.61621169 Ry
      -> total E_H with PAW    =     387.83781248 Ry
      -> total E_XC with PAW   =     -70.93145642 Ry

     iteration #  5     ecut=    60.00 Ry     beta= 0.70
     Davidson diagonalization with overlap
     ethr =  8.45E-07,  avg # of iterations =  3.0

     negative rho (up, down):  2.269E-04 0.000E+00

     total cpu time spent up to now is       12.7 secs

          k = 0.0000 0.0000 0.0000     band energies (ev):

   -20.8302 -20.7990 -18.1997 -18.1932 -18.0957 -18.0821 -14.7047 -14.6725
   -14.6313 -14.6223 -12.8448 -12.8378 -11.2914 -11.2882 -10.4038 -10.4015
   -10.0312 -10.0172  -9.9378  -9.9239  -8.7381  -8.4822  -7.9436  -7.9395
    -7.8385  -7.8356  -5.9940  -5.9557  -5.7675  -5.6704

     occupation numbers 
     1.0000   1.0000   1.0000   1.0000   1.0000   1.0000   1.0000   1.0000
     1.0000   1.0000   1.0000   1.0000   1.0000   1.0000   1.0000   1.0000
     1.0000   1.0000   1.0000   1.0000   1.0000   1.0000   1.0000   1.0000
     1.0000   1.0000   1.0000   1.0000   1.0000   1.0000

     highest occupied level (ev):    -5.6704

!    total energy              =    -235.23574333 Ry

     total all-electron energy =      -928.404858 Ry
     estimated scf accuracy    <       0.00002336 Ry

     The total energy is the sum of the following terms:
     one-electron contribution =    -758.18768396 Ry
     hartree contribution      =     387.80240142 Ry
     xc contribution           =     -64.74721022 Ry
     ewald contribution        =     273.94392509 Ry
     scf correction            =      -0.00375560 Ry
     one-center paw contrib.   =     -74.04342006 Ry
      -> PAW hartree energy AE =      10.01843040 Ry
      -> PAW hartree energy PS =     -10.00933875 Ry
      -> PAW xc energy AE      =     -10.80333849 Ry
      -> PAW xc energy PS      =       4.62376164 Ry
      -> total E_H with PAW    =     387.81149307 Ry
      -> total E_XC with PAW   =     -70.92678706 Ry

     iteration #  6     ecut=    60.00 Ry     beta= 0.70
     Davidson diagonalization with overlap
     ethr =  3.89E-08,  avg # of iterations =  5.0

     negative rho (up, down):  2.266E-04 0.000E+00

     total cpu time spent up to now is       13.6 secs

          k = 0.0000 0.0000 0.0000     band energies (ev):

   -20.8409 -20.8096 -18.2057 -18.2001 -18.1020 -18.0881 -14.7082 -14.6758
   -14.6346 -14.6256 -12.8517 -12.8447 -11.2928 -11.2900 -10.4091 -10.4061
   -10.0396 -10.0263  -9.9466  -9.9322  -8.7445  -8.4881  -7.9497  -7.9449
    -7.8440  -7.8415  -5.9990  -5.9607  -5.7726  -5.6760

     occupation numbers 
     1.0000   1.0000   1.0000   1.0000   1.0000   1.0000   1.0000   1.0000
     1.0000   1.0000   1.0000   1.0000   1.0000   1.0000   1.0000   1.0000
     1.0000   1.0000   1.0000   1.0000   1.0000   1.0000   1.0000   1.0000
     1.0000   1.0000   1.0000   1.0000   1.0000   1.0000

     highest occupied level (ev):    -5.6760

!    total energy              =    -235.23575084 Ry

     total all-electron energy =      -928.404865 Ry
     estimated scf accuracy    <       0.00000180 Ry

     The total energy is the sum of the following terms:
     one-electron contribution =    -758.19838912 Ry
     hartree contribution      =     387.80446906 Ry
     xc contribution           =     -64.74601739 Ry
     ewald contribution        =     273.94392509 Ry
     scf correction            =       0.00346247 Ry
     one-center paw contrib.   =     -74.04320093 Ry
      -> PAW hartree energy AE =      10.02319454 Ry
      -> PAW hartree energy PS =     -10.01410292 Ry
      -> PAW xc energy AE      =     -10.80443623 Ry
      -> PAW xc energy PS      =       4.62486919 Ry
      -> total E_H with PAW    =     387.81356067 Ry
      -> total E_XC with PAW   =     -70.92558444 Ry

     iteration #  7     ecut=    60.00 Ry     beta= 0.70
     Davidson diagonalization with overlap
     ethr =  2.99E-09,  avg # of iterations =  5.0

     negative rho (up, down):  2.265E-04 0.000E+00

     total cpu time spent up to now is       14.4 secs

          k = 0.0000 0.0000 0.0000     band energies (ev):

   -20.8390 -20.8078 -18.2053 -18.1991 -18.1009 -18.0876 -14.7083 -14.6760
   -14.6349 -14.6256 -12.8514 -12.8444 -11.2941 -11.2911 -10.4081 -10.4058
   -10.0393 -10.0256  -9.9457  -9.9319  -8.7428  -8.4870  -7.9493  -7.9451
    -7.8441  -7.8411  -5.9981  -5.9597  -5.7714  -5.6747

     occupation numbers 
     1.0000   1.0000   1.0000   1.0000   1.0000   1.0000   1.0000   1.0000
     1.0000   1.0000   1.0000   1.0000   1.0000   1.0000   1.0000   1.0000
     1.0000   1.0000   1.0000   1.0000   1.0000   1.0000   1.0000   1.0000
     1.0000   1.0000   1.0000   1.0000   1.0000   1.0000

     highest occupied level (ev):    -5.6747

!    total energy              =    -235.23575146 Ry

     total all-electron energy =      -928.404866 Ry
     estimated scf accuracy    <       0.00000107 Ry

     The total energy is the sum of the following terms:
     one-electron contribution =    -758.18816658 Ry
     hartree contribution      =     387.80277215 Ry
     xc contribution           =     -64.74589001 Ry
     ewald contribution        =     273.94392509 Ry
     scf correction            =      -0.00528219 Ry
     one-center paw contrib.   =     -74.04310991 Ry
      -> PAW hartree energy AE =      10.02354592 Ry
      -> PAW hartree energy PS =     -10.01445528 Ry
      -> PAW xc energy AE      =     -10.80450779 Ry
      -> PAW xc energy PS      =       4.62495148 Ry
      -> total E_H with PAW    =     387.81186279 Ry
      -> total E_XC with PAW   =     -70.92544632 Ry

     iteration #  8     ecut=    60.00 Ry     beta= 0.70
     Davidson diagonalization with overlap
     ethr =  1.79E-09,  avg # of iterations =  4.0

     negative rho (up, down):  2.264E-04 0.000E+00

     total cpu time spent up to now is       15.1 secs

          k = 0.0000 0.0000 0.0000     band energies (ev):

   -20.8394 -20.8081 -18.2056 -18.1997 -18.1013 -18.0879 -14.7087 -14.6764
   -14.6352 -14.6261 -12.8517 -12.8447 -11.2944 -11.2915 -10.4086 -10.4062
   -10.0395 -10.0260  -9.9460  -9.9321  -8.7434  -8.4872  -7.9498  -7.9454
    -7.8444  -7.8416  -5.9985  -5.9601  -5.7718  -5.6753

     occupation numbers 
     1.0000   1.0000   1.0000   1.0000   1.0000   1.0000   1.0000   1.0000
     1.0000   1.0000   1.0000   1.0000   1.0000   1.0000   1.0000   1.0000
     1.0000   1.0000   1.0000   1.0000   1.0000   1.0000   1.0000   1.0000
     1.0000   1.0000   1.0000   1.0000   1.0000   1.0000

     highest occupied level (ev):    -5.6753

!    total energy              =    -235.23575162 Ry

     total all-electron energy =      -928.404866 Ry
     estimated scf accuracy    <       0.00000006 Ry

     The total energy is the sum of the following terms:
     one-electron contribution =    -758.19034853 Ry
     hartree contribution      =     387.80156760 Ry
     xc contribution           =     -64.74591149 Ry
     ewald contribution        =     273.94392509 Ry
     scf correction            =      -0.00194234 Ry
     one-center paw contrib.   =     -74.04304193 Ry
      -> PAW hartree energy AE =      10.02398425 Ry
      -> PAW hartree energy PS =     -10.01489391 Ry
      -> PAW xc energy AE      =     -10.80460552 Ry
      -> PAW xc energy PS      =       4.62505300 Ry
      -> total E_H with PAW    =     387.81065794 Ry
      -> total E_XC with PAW   =     -70.92546401 Ry

     iteration #  9     ecut=    60.00 Ry     beta= 0.70
     Davidson diagonalization with overlap
     ethr =  9.29E-11,  avg # of iterations =  5.0

     negative rho (up, down):  2.264E-04 0.000E+00

     total cpu time spent up to now is       15.9 secs

          k = 0.0000 0.0000 0.0000     band energies (ev):

   -20.8398 -20.8085 -18.2059 -18.2001 -18.1018 -18.0882 -14.7090 -14.6766
   -14.6354 -14.6264 -12.8518 -12.8448 -11.2944 -11.2915 -10.4092 -10.4066
   -10.0397 -10.0263  -9.9463  -9.9322  -8.7438  -8.4876  -7.9501  -7.9456
    -7.8446  -7.8419  -5.9989  -5.9605  -5.7722  -5.6757

     occupation numbers 
     1.0000   1.0000   1.0000   1.0000   1.0000   1.0000   1.0000   1.0000
     1.0000   1.0000   1.0000   1.0000   1.0000   1.0000   1.0000   1.0000
     1.0000   1.0000   1.0000   1.0000   1.0000   1.0000   1.0000   1.0000
     1.0000   1.0000   1.0000   1.0000   1.0000   1.0000

     highest occupied level (ev):    -5.6757

!    total energy              =    -235.23575165 Ry

     total all-electron energy =      -928.404866 Ry
     estimated scf accuracy    <       0.00000004 Ry

     The total energy is the sum of the following terms:
     one-electron contribution =    -758.19293103 Ry
     hartree contribution      =     387.80152126 Ry
     xc contribution           =     -64.74589859 Ry
     ewald contribution        =     273.94392509 Ry
     scf correction            =       0.00067695 Ry
     one-center paw contrib.   =     -74.04304532 Ry
      -> PAW hartree energy AE =      10.02411924 Ry
      -> PAW hartree energy PS =     -10.01502877 Ry
      -> PAW xc energy AE      =     -10.80463782 Ry
      -> PAW xc energy PS      =       4.62508425 Ry
      -> total E_H with PAW    =     387.81061172 Ry
      -> total E_XC with PAW   =     -70.92545216 Ry

     iteration # 10     ecut=    60.00 Ry     beta= 0.70
     Davidson diagonalization with overlap
     ethr =  6.17E-11,  avg # of iterations =  3.0

     negative rho (up, down):  2.264E-04 0.000E+00

     total cpu time spent up to now is       16.6 secs

          k = 0.0000 0.0000 0.0000     band energies (ev):

   -20.8398 -20.8086 -18.2059 -18.2001 -18.1018 -18.0882 -14.7090 -14.6766
   -14.6354 -14.6264 -12.8518 -12.8448 -11.2944 -11.2915 -10.4092 -10.4066
   -10.0397 -10.0263  -9.9463  -9.9322  -8.7438  -8.4876  -7.9501  -7.9456
    -7.8446  -7.8419  -5.9989  -5.9605  -5.7722  -5.6757

     occupation numbers 
     1.0000   1.0000   1.0000   1.0000   1.0000   1.0000   1.0000   1.0000
     1.0000   1.0000   1.0000   1.0000   1.0000   1.0000   1.0000   1.0000
     1.0000   1.0000   1.0000   1.0000   1.0000   1.0000   1.0000   1.0000
     1.0000   1.0000   1.0000   1.0000   1.0000   1.0000

     highest occupied level (ev):    -5.6757

!    total energy              =    -235.23575165 Ry

     total all-electron energy =      -928.404866 Ry
     estimated scf accuracy    <       0.00000001 Ry

     The total energy is the sum of the following terms:
     one-electron contribution =    -758.19303111 Ry
     hartree contribution      =     387.80175226 Ry
     xc contribution           =     -64.74589434 Ry
     ewald contribution        =     273.94392509 Ry
     scf correction            =       0.00055315 Ry
     one-center paw contrib.   =     -74.04305669 Ry
      -> PAW hartree energy AE =      10.02420037 Ry
      -> PAW hartree energy PS =     -10.01510976 Ry
      -> PAW xc energy AE      =     -10.80465806 Ry
      -> PAW xc energy PS      =       4.62510305 Ry
      -> total E_H with PAW    =     387.81084287 Ry
      -> total E_XC with PAW   =     -70.92544935 Ry

     iteration # 11     ecut=    60.00 Ry     beta= 0.70
     Davidson diagonalization with overlap
     ethr =  2.19E-11,  avg # of iterations =  5.0

     negative rho (up, down):  2.264E-04 0.000E+00

     total cpu time spent up to now is       17.4 secs

     End of self-consistent calculation

          k = 0.0000 0.0000 0.0000 (178925 PWs)   bands (ev):

   -20.8397 -20.8085 -18.2059 -18.2000 -18.1017 -18.0882 -14.7089 -14.6766
   -14.6354 -14.6263 -12.8518 -12.8448 -11.2944 -11.2915 -10.4091 -10.4065
   -10.0397 -10.0262  -9.9463  -9.9322  -8.7437  -8.4875  -7.9500  -7.9456
    -7.8446  -7.8418  -5.9988  -5.9604  -5.7722  -5.6756

     occupation numbers 
     1.0000   1.0000   1.0000   1.0000   1.0000   1.0000   1.0000   1.0000
     1.0000   1.0000   1.0000   1.0000   1.0000   1.0000   1.0000   1.0000
     1.0000   1.0000   1.0000   1.0000   1.0000   1.0000   1.0000   1.0000
     1.0000   1.0000   1.0000   1.0000   1.0000   1.0000

     highest occupied level (ev):    -5.6756

!    total energy              =    -235.23575165 Ry

     total all-electron energy =      -928.404866 Ry
     estimated scf accuracy    <          9.0E-10 Ry

     The total energy is the sum of the following terms:
     one-electron contribution =    -758.19251451 Ry
     hartree contribution      =     387.80180103 Ry
     xc contribution           =     -64.74590626 Ry
     ewald contribution        =     273.94392509 Ry
     one-center paw contrib.   =     -74.04305700 Ry
      -> PAW hartree energy AE =      10.02411743 Ry
      -> PAW hartree energy PS =     -10.01502688 Ry
      -> PAW xc energy AE      =     -10.80463844 Ry
      -> PAW xc energy PS      =       4.62508385 Ry
      -> total E_H with PAW    =     387.81089158 Ry
      -> total E_XC with PAW   =     -70.92546085 Ry

     convergence has been achieved in  11 iterations

     Writing output data file ./tmp/ben2.save/
 
     init_run     :      5.04s CPU      6.50s WALL (       1 calls)
     electrons    :      8.01s CPU      9.38s WALL (       1 calls)

     Called by init_run:
     wfcinit      :      0.16s CPU      0.73s WALL (       1 calls)
     wfcinit:atom :      0.00s CPU      0.00s WALL (       1 calls)
     wfcinit:wfcr :      0.16s CPU      0.72s WALL (       1 calls)
     potinit      :      0.20s CPU      0.39s WALL (       1 calls)
     hinit0       :      0.19s CPU      0.66s WALL (       1 calls)

     Called by electrons:
     c_bands      :      3.34s CPU      3.61s WALL (      11 calls)
     sum_band     :      1.60s CPU      1.95s WALL (      11 calls)
     v_of_rho     :      1.55s CPU      1.68s WALL (      12 calls)
     v_h          :      0.13s CPU      0.15s WALL (      12 calls)
     v_xc         :      1.42s CPU      1.53s WALL (      12 calls)
     newd         :      0.80s CPU      1.23s WALL (      12 calls)
     PAW_pot      :      0.24s CPU      0.38s WALL (      12 calls)
     mix_rho      :      0.28s CPU      0.34s WALL (      11 calls)

     Called by c_bands:
     init_us_2    :      0.03s CPU      0.04s WALL (      23 calls)
     cegterg      :      3.29s CPU      3.54s WALL (      11 calls)

     Called by sum_band:
     sum_band:wei :      0.00s CPU      0.00s WALL (      11 calls)
     sum_band:loo :      0.43s CPU      0.44s WALL (      11 calls)
     sum_band:buf :      0.00s CPU      0.00s WALL (      11 calls)
     sum_band:ini :      0.02s CPU      0.02s WALL (      11 calls)
     sum_band:cal :      0.04s CPU      0.05s WALL (      11 calls)
     sum_band:bec :      0.00s CPU      0.00s WALL (      11 calls)
     addusdens    :      1.00s CPU      1.32s WALL (      11 calls)
     addusd:skk   :      0.11s CPU      0.15s WALL (      22 calls)
     addusd:dgemm :      0.57s CPU      0.84s WALL (      22 calls)
     addusd:qvan2 :      0.23s CPU      0.24s WALL (      22 calls)

     Called by *egterg:
     cdiaghg      :      0.07s CPU      0.70s WALL (      54 calls)
     cegterg:over :      0.11s CPU      0.12s WALL (      43 calls)
     cegterg:upda :      0.05s CPU      0.05s WALL (      43 calls)
     cegterg:last :      0.12s CPU      0.13s WALL (      30 calls)
     h_psi        :      2.78s CPU      2.94s WALL (      55 calls)
     s_psi        :      0.19s CPU      0.19s WALL (      55 calls)
     g_psi        :      0.00s CPU      0.00s WALL (      43 calls)

     Called by h_psi:
     h_psi:calbec :      0.21s CPU      0.28s WALL (      55 calls)
     vloc_psi     :      2.35s CPU      2.41s WALL (      55 calls)
     add_vuspsi   :      0.21s CPU      0.25s WALL (      55 calls)

     General routines
     calbec       :      0.26s CPU      0.33s WALL (      66 calls)
     fft          :      1.25s CPU      1.78s WALL (     154 calls)
     ffts         :      0.07s CPU      0.08s WALL (      23 calls)
     fftw         :      2.52s CPU      2.57s WALL (    2568 calls)
     interpolate  :      0.16s CPU      0.17s WALL (      12 calls)
 
     Parallel routines
     fft_scatt_xy :      0.29s CPU      0.29s WALL (    2745 calls)
     fft_scatt_yz :      2.51s CPU      2.59s WALL (    2745 calls)

     PAW routines
     PAW_pot      :      0.24s CPU      0.38s WALL (      12 calls)
 
     PWSCF        :     14.11s CPU     18.42s WALL

 
   This run was terminated on:   6: 3:58  23Dec2021            

=------------------------------------------------------------------------------=
   JOB DONE.
=------------------------------------------------------------------------------=
