
     Program PWSCF v.6.6 starts on 23Dec2021 at  4:27:12 

     This program is part of the open-source Quantum ESPRESSO suite
     for quantum simulation of materials; please cite
         "P. Giannozzi et al., J. Phys.:Condens. Matter 21 395502 (2009);
         "P. Giannozzi et al., J. Phys.:Condens. Matter 29 465901 (2017);
          URL http://www.quantum-espresso.org", 
     in publications or presentations arising from this work. More details at
     http://www.quantum-espresso.org/quote

     Parallel version (MPI & OpenMP), running on     128 processor cores
     Number of MPI processes:               128
     Threads/MPI process:                     1

     MPI processes distributed on     1 nodes
     R & G space division:  proc/nbgrp/npool/nimage =     128
     Fft bands division:     nmany     =       1
     Waiting for input...
     Reading input from standard input

     Current dimensions of program PWSCF are:
     Max number of different atomic species (ntypx) = 10
     Max number of k-points (npk) =  40000
     Max angular momentum in pseudopotentials (lmaxx) =  3
     Message from routine iosys:
     restart disabled: needed files not found
     file C.pbe-n-kjpaw_psl.1.0.0.UPF: wavefunction(s)  2S 2P renormalized
     file H.pbe-kjpaw_psl.1.0.0.UPF: wavefunction(s)  1S renormalized

     Subspace diagonalization in iterative solution of the eigenvalue problem:
     a serial algorithm will be used

 
     Parallelization info
     --------------------
     sticks:   dense  smooth     PW     G-vecs:    dense   smooth      PW
     Min         299     119     29                44165    11165    1391
     Max         300     120     30                44172    11174    1402
     Sum       38393   15329   3833              5653693  1429635  178925
 


     bravais-lattice index     =            0
     lattice parameter (alat)  =      28.3459  a.u.
     unit-cell volume          =   22775.6289 (a.u.)^3
     number of atoms/cell      =           24
     number of atomic types    =            2
     number of electrons       =        60.00
     number of Kohn-Sham states=           30
     kinetic-energy cutoff     =      60.0000  Ry
     charge density cutoff     =     600.0000  Ry
     convergence threshold     =      1.0E-08
     mixing beta               =       0.7000
     number of iterations used =            8  plain     mixing
     Exchange-correlation= SLA PW PBX PBC
                           (   1   4   3   4   0   0   0)

     celldm(1)=  28.345892  celldm(2)=   0.000000  celldm(3)=   0.000000
     celldm(4)=   0.000000  celldm(5)=   0.000000  celldm(6)=   0.000000

     crystal axes: (cart. coord. in units of alat)
               a(1) = (   1.000000   0.000000   0.000000 )  
               a(2) = (   0.000000   1.000000   0.000000 )  
               a(3) = (   0.000000   0.000000   1.000000 )  

     reciprocal axes: (cart. coord. in units 2 pi/alat)
               b(1) = (  1.000000  0.000000  0.000000 )  
               b(2) = (  0.000000  1.000000  0.000000 )  
               b(3) = (  0.000000  0.000000  1.000000 )  


     PseudoPot. # 1 for C  read from file:
     /home/k0151/k015124/src/pseudo/C.pbe-n-kjpaw_psl.1.0.0.UPF
     MD5 check sum: 5f16ad9a65e90284d1d834d4ab3b0f7d
     Pseudo is Projector augmented-wave + core cor, Zval =  4.0
     Generated using "atomic" code by A. Dal Corso v.6.3
     Shape of augmentation charge: PSQ
     Using radial grid of 1073 points,  4 beta functions with: 
                l(1) =   0
                l(2) =   0
                l(3) =   1
                l(4) =   1
     Q(r) pseudized with 0 coefficients 


     PseudoPot. # 2 for H  read from file:
     /home/k0151/k015124/src/pseudo/H.pbe-kjpaw_psl.1.0.0.UPF
     MD5 check sum: d81a744832360e4a8af0b0b5b123bc2a
     Pseudo is Projector augmented-wave, Zval =  1.0
     Generated using "atomic" code by A. Dal Corso v.6.3MaX
     Shape of augmentation charge: PSQ
     Using radial grid of  929 points,  2 beta functions with: 
                l(1) =   0
                l(2) =   0
     Q(r) pseudized with 0 coefficients 


     atomic species   valence    mass     pseudopotential
        C              4.00    12.01100     C ( 1.00)
        H              1.00     1.00800     H ( 1.00)

     No symmetry found


                                    s                        frac. trans.

      isym =  1     identity                                     

 cryst.   s( 1) = (     1          0          0      )
                  (     0          1          0      )
                  (     0          0          1      )

 cart.    s( 1) = (  1.0000000  0.0000000  0.0000000 )
                  (  0.0000000  1.0000000  0.0000000 )
                  (  0.0000000  0.0000000  1.0000000 )


   Cartesian axes

     site n.     atom                  positions (alat units)
         1           C   tau(   1) = (   0.5926667   0.5000000   0.5000000  )
         2           C   tau(   2) = (   0.5466667   0.4200000   0.5000000  )
         3           C   tau(   3) = (   0.4533333   0.4200000   0.5000000  )
         4           C   tau(   4) = (   0.4073333   0.5000000   0.5000000  )
         5           C   tau(   5) = (   0.4533333   0.5800000   0.5000000  )
         6           C   tau(   6) = (   0.5466667   0.5800000   0.5000000  )
         7           H   tau(   7) = (   0.6593333   0.5000000   0.5000000  )
         8           H   tau(   8) = (   0.5800000   0.3620000   0.5000000  )
         9           H   tau(   9) = (   0.4200000   0.3620000   0.5000000  )
        10           H   tau(  10) = (   0.3406667   0.5000000   0.5000000  )
        11           H   tau(  11) = (   0.4200000   0.6380000   0.5000000  )
        12           H   tau(  12) = (   0.5800000   0.6380000   0.5000000  )
        13           C   tau(  13) = (   0.7800000   0.5466667   0.7466667  )
        14           C   tau(  14) = (   0.7800000   0.4533333   0.7466667  )
        15           C   tau(  15) = (   0.7000000   0.4073333   0.7466667  )
        16           C   tau(  16) = (   0.6200000   0.4533333   0.7466667  )
        17           C   tau(  17) = (   0.6200000   0.5466667   0.7466667  )
        18           C   tau(  18) = (   0.7000000   0.5926667   0.7466667  )
        19           H   tau(  19) = (   0.8380000   0.5800000   0.7466667  )
        20           H   tau(  20) = (   0.8380000   0.4200000   0.7466667  )
        21           H   tau(  21) = (   0.7000000   0.3406667   0.7466667  )
        22           H   tau(  22) = (   0.5620000   0.4206667   0.7466667  )
        23           H   tau(  23) = (   0.5620000   0.5800000   0.7466667  )
        24           H   tau(  24) = (   0.7000000   0.6593333   0.7466667  )

   Crystallographic axes

     site n.     atom                  positions (cryst. coord.)
         1           C   tau(   1) = (  0.5926667  0.5000000  0.5000000  )
         2           C   tau(   2) = (  0.5466667  0.4200000  0.5000000  )
         3           C   tau(   3) = (  0.4533333  0.4200000  0.5000000  )
         4           C   tau(   4) = (  0.4073333  0.5000000  0.5000000  )
         5           C   tau(   5) = (  0.4533333  0.5800000  0.5000000  )
         6           C   tau(   6) = (  0.5466667  0.5800000  0.5000000  )
         7           H   tau(   7) = (  0.6593333  0.5000000  0.5000000  )
         8           H   tau(   8) = (  0.5800000  0.3620000  0.5000000  )
         9           H   tau(   9) = (  0.4200000  0.3620000  0.5000000  )
        10           H   tau(  10) = (  0.3406667  0.5000000  0.5000000  )
        11           H   tau(  11) = (  0.4200000  0.6380000  0.5000000  )
        12           H   tau(  12) = (  0.5800000  0.6380000  0.5000000  )
        13           C   tau(  13) = (  0.7800000  0.5466667  0.7466667  )
        14           C   tau(  14) = (  0.7800000  0.4533333  0.7466667  )
        15           C   tau(  15) = (  0.7000000  0.4073333  0.7466667  )
        16           C   tau(  16) = (  0.6200000  0.4533333  0.7466667  )
        17           C   tau(  17) = (  0.6200000  0.5466667  0.7466667  )
        18           C   tau(  18) = (  0.7000000  0.5926667  0.7466667  )
        19           H   tau(  19) = (  0.8380000  0.5800000  0.7466667  )
        20           H   tau(  20) = (  0.8380000  0.4200000  0.7466667  )
        21           H   tau(  21) = (  0.7000000  0.3406667  0.7466667  )
        22           H   tau(  22) = (  0.5620000  0.4206667  0.7466667  )
        23           H   tau(  23) = (  0.5620000  0.5800000  0.7466667  )
        24           H   tau(  24) = (  0.7000000  0.6593333  0.7466667  )

     number of k points=     1
                       cart. coord. in units 2pi/alat
        k(    1) = (   0.0000000   0.0000000   0.0000000), wk =   2.0000000

                       cryst. coord.
        k(    1) = (   0.0000000   0.0000000   0.0000000), wk =   2.0000000

     Dense  grid:  5653693 G-vectors     FFT dimensions: ( 225, 225, 225)

     Smooth grid:  1429635 G-vectors     FFT dimensions: ( 144, 144, 144)

     Dynamical RAM for                 wfc:       0.64 MB

     Dynamical RAM for     wfc (w. buffer):       0.64 MB

     Dynamical RAM for           str. fact:       1.35 MB

     Dynamical RAM for           local pot:       0.00 MB

     Dynamical RAM for          nlocal pot:       2.56 MB

     Dynamical RAM for                qrad:       1.12 MB

     Dynamical RAM for          rho,v,vnew:       4.34 MB

     Dynamical RAM for               rhoin:       1.45 MB

     Dynamical RAM for            rho*nmix:      10.78 MB

     Dynamical RAM for           G-vectors:       2.61 MB

     Dynamical RAM for          h,s,v(r/c):       0.16 MB

     Dynamical RAM for          <psi|beta>:       0.05 MB

     Dynamical RAM for                 psi:       1.28 MB

     Dynamical RAM for                hpsi:       1.28 MB

     Dynamical RAM for                spsi:       1.28 MB

     Dynamical RAM for      wfcinit/wfcrot:       1.30 MB

     Dynamical RAM for           addusdens:      37.07 MB

     Estimated static dynamical RAM per process >      30.73 MB

     Estimated max dynamical RAM per process >      86.27 MB

     Estimated total dynamical RAM >      10.78 GB
     Cannot read rho : file not found

     Initial potential from superposition of free atoms

     starting charge   59.99939, renormalised to   60.00000

     negative rho (up, down):  1.135E-04 0.000E+00
     Message from routine qexsd_readschema :
     xml data file ./tmp/ben2.save/data-file-schema.xml not found
     Cannot read wfcs: file not found
     Starting wfcs are   60 randomized atomic wfcs
     Checking if some PAW data can be deallocated... 
       PAW data deallocated on   62 nodes for type:  1
       PAW data deallocated on   66 nodes for type:  2

     total cpu time spent up to now is        8.1 secs

     Self-consistent Calculation

     iteration #  1     ecut=    60.00 Ry     beta= 0.70
     Davidson diagonalization with overlap
     ethr =  1.00E-05,  avg # of iterations =  7.0

     negative rho (up, down):  2.002E-04 0.000E+00

     total cpu time spent up to now is        9.2 secs

          k = 0.0000 0.0000 0.0000     band energies (ev):

   -26.8547 -26.8431 -24.1693 -24.1688 -24.0066 -23.9963 -20.5453 -20.5328
   -20.4491 -20.4394 -18.3874 -18.3767 -16.8551 -16.8507 -16.6303 -16.6173
   -15.8280 -15.8237 -15.6939 -15.6817 -13.9040 -13.8874 -13.7850 -13.7842
   -13.4908 -13.3673 -10.8352 -10.8130 -10.6524 -10.6340

     occupation numbers 
     1.0000   1.0000   1.0000   1.0000   1.0000   1.0000   1.0000   1.0000
     1.0000   1.0000   1.0000   1.0000   1.0000   1.0000   1.0000   1.0000
     1.0000   1.0000   1.0000   1.0000   1.0000   1.0000   1.0000   1.0000
     1.0000   1.0000   1.0000   1.0000   1.0000   1.0000

     highest occupied level (ev):   -10.6340

!    total energy              =    -234.41006049 Ry

     total all-electron energy =      -927.579175 Ry
     estimated scf accuracy    <       3.40194000 Ry

     The total energy is the sum of the following terms:
     one-electron contribution =    -763.67306497 Ry
     hartree contribution      =     388.57219135 Ry
     xc contribution           =     -65.27475141 Ry
     ewald contribution        =     268.45421840 Ry
     scf correction            =      11.79958017 Ry
     one-center paw contrib.   =     -74.28823403 Ry
      -> PAW hartree energy AE =       9.23762251 Ry
      -> PAW hartree energy PS =      -9.22665620 Ry
      -> PAW xc energy AE      =     -10.64389460 Ry
      -> PAW xc energy PS      =       4.44197001 Ry
      -> total E_H with PAW    =     388.58315766 Ry
      -> total E_XC with PAW   =     -71.47667600 Ry

     iteration #  2     ecut=    60.00 Ry     beta= 0.70
     Davidson diagonalization with overlap
     ethr =  5.67E-03,  avg # of iterations =  2.0

     negative rho (up, down):  2.373E-04 0.000E+00

     total cpu time spent up to now is       10.3 secs

          k = 0.0000 0.0000 0.0000     band energies (ev):

   -18.9413 -18.9174 -16.7091 -16.6670 -16.6571 -16.6143 -13.5984 -13.5720
   -13.5350 -13.5141 -11.7073 -11.7031 -10.8181 -10.8134  -8.7025  -8.6598
    -8.6533  -8.6383  -8.6105  -8.5868  -7.1473  -6.9276  -6.6560  -6.6533
    -6.5557  -6.5516  -4.4691  -4.4613  -4.3006  -4.1866

     occupation numbers 
     1.0000   1.0000   1.0000   1.0000   1.0000   1.0000   1.0000   1.0000
     1.0000   1.0000   1.0000   1.0000   1.0000   1.0000   1.0000   1.0000
     1.0000   1.0000   1.0000   1.0000   1.0000   1.0000   1.0000   1.0000
     1.0000   1.0000   1.0000   1.0000   1.0000   1.0000

     highest occupied level (ev):    -4.1866

!    total energy              =    -235.14433274 Ry

     total all-electron energy =      -928.313447 Ry
     estimated scf accuracy    <       0.49772330 Ry

     The total energy is the sum of the following terms:
     one-electron contribution =    -739.82377180 Ry
     hartree contribution      =     380.78824254 Ry
     xc contribution           =     -64.53300396 Ry
     ewald contribution        =     268.45421840 Ry
     scf correction            =      -5.90634610 Ry
     one-center paw contrib.   =     -74.12367181 Ry
      -> PAW hartree energy AE =       9.31909844 Ry
      -> PAW hartree energy PS =      -9.30956788 Ry
      -> PAW xc energy AE      =     -10.64532096 Ry
      -> PAW xc energy PS      =       4.45884715 Ry
      -> total E_H with PAW    =     380.79777310 Ry
      -> total E_XC with PAW   =     -70.71947777 Ry

     iteration #  3     ecut=    60.00 Ry     beta= 0.70
     Davidson diagonalization with overlap
     ethr =  8.30E-04,  avg # of iterations =  2.0

     negative rho (up, down):  2.211E-04 0.000E+00

     total cpu time spent up to now is       11.1 secs

          k = 0.0000 0.0000 0.0000     band energies (ev):

   -21.2497 -21.2300 -18.5476 -18.5451 -18.4427 -18.4413 -15.0018 -14.9817
   -14.9326 -14.9258 -13.1953 -13.1891 -11.5548 -11.5507 -10.7442 -10.7418
   -10.4001 -10.3964 -10.3079 -10.3039  -9.0255  -8.8300  -8.2782  -8.2777
    -8.1754  -8.1738  -6.2583  -6.2276  -6.0730  -6.0173

     occupation numbers 
     1.0000   1.0000   1.0000   1.0000   1.0000   1.0000   1.0000   1.0000
     1.0000   1.0000   1.0000   1.0000   1.0000   1.0000   1.0000   1.0000
     1.0000   1.0000   1.0000   1.0000   1.0000   1.0000   1.0000   1.0000
     1.0000   1.0000   1.0000   1.0000   1.0000   1.0000

     highest occupied level (ev):    -6.0173

!    total energy              =    -235.23481731 Ry

     total all-electron energy =      -928.403932 Ry
     estimated scf accuracy    <       0.01344523 Ry

     The total energy is the sum of the following terms:
     one-electron contribution =    -747.65644468 Ry
     hartree contribution      =     382.05473493 Ry
     xc contribution           =     -64.72169006 Ry
     ewald contribution        =     268.45421840 Ry
     scf correction            =       0.69021682 Ry
     one-center paw contrib.   =     -74.05585273 Ry
      -> PAW hartree energy AE =       9.86328575 Ry
      -> PAW hartree energy PS =      -9.85414131 Ry
      -> PAW xc energy AE      =     -10.76809603 Ry
      -> PAW xc energy PS      =       4.58750002 Ry
      -> total E_H with PAW    =     382.06387937 Ry
      -> total E_XC with PAW   =     -70.90228607 Ry

     iteration #  4     ecut=    60.00 Ry     beta= 0.70
     Davidson diagonalization with overlap
     ethr =  2.24E-05,  avg # of iterations =  2.0

     negative rho (up, down):  2.242E-04 0.000E+00

     total cpu time spent up to now is       11.8 secs

          k = 0.0000 0.0000 0.0000     band energies (ev):

   -20.9076 -20.8878 -18.2729 -18.2628 -18.1613 -18.1511 -14.7553 -14.7351
   -14.6880 -14.6793 -12.8981 -12.8919 -11.3255 -11.3207 -10.4801 -10.4797
   -10.0941 -10.0790  -9.9934  -9.9811  -8.7742  -8.5788  -8.0005  -7.9991
    -7.8973  -7.8944  -6.0257  -6.0058  -5.8439  -5.7778

     occupation numbers 
     1.0000   1.0000   1.0000   1.0000   1.0000   1.0000   1.0000   1.0000
     1.0000   1.0000   1.0000   1.0000   1.0000   1.0000   1.0000   1.0000
     1.0000   1.0000   1.0000   1.0000   1.0000   1.0000   1.0000   1.0000
     1.0000   1.0000   1.0000   1.0000   1.0000   1.0000

     highest occupied level (ev):    -5.7778

!    total energy              =    -235.23645563 Ry

     total all-electron energy =      -928.405570 Ry
     estimated scf accuracy    <       0.00050617 Ry

     The total energy is the sum of the following terms:
     one-electron contribution =    -747.43287468 Ry
     hartree contribution      =     382.33173926 Ry
     xc contribution           =     -64.74785497 Ry
     ewald contribution        =     268.45421840 Ry
     scf correction            =       0.20436781 Ry
     one-center paw contrib.   =     -74.04605145 Ry
      -> PAW hartree energy AE =       9.98589678 Ry
      -> PAW hartree energy PS =      -9.97679381 Ry
      -> PAW xc energy AE      =     -10.79592446 Ry
      -> PAW xc energy PS      =       4.61614792 Ry
      -> total E_H with PAW    =     382.34084223 Ry
      -> total E_XC with PAW   =     -70.92763151 Ry

     iteration #  5     ecut=    60.00 Ry     beta= 0.70
     Davidson diagonalization with overlap
     ethr =  8.44E-07,  avg # of iterations =  3.0

     negative rho (up, down):  2.252E-04 0.000E+00

     total cpu time spent up to now is       12.6 secs

          k = 0.0000 0.0000 0.0000     band energies (ev):

   -20.8256 -20.8056 -18.2001 -18.1928 -18.0963 -18.0871 -14.7005 -14.6800
   -14.6325 -14.6244 -12.8457 -12.8399 -11.2938 -11.2895 -10.4051 -10.4037
   -10.0321 -10.0192  -9.9381  -9.9264  -8.7071  -8.5102  -7.9444  -7.9422
    -7.8405  -7.8382  -5.9617  -5.9398  -5.7810  -5.7153

     occupation numbers 
     1.0000   1.0000   1.0000   1.0000   1.0000   1.0000   1.0000   1.0000
     1.0000   1.0000   1.0000   1.0000   1.0000   1.0000   1.0000   1.0000
     1.0000   1.0000   1.0000   1.0000   1.0000   1.0000   1.0000   1.0000
     1.0000   1.0000   1.0000   1.0000   1.0000   1.0000

     highest occupied level (ev):    -5.7153

!    total energy              =    -235.23663235 Ry

     total all-electron energy =      -928.405747 Ry
     estimated scf accuracy    <       0.00002335 Ry

     The total energy is the sum of the following terms:
     one-electron contribution =    -747.20510653 Ry
     hartree contribution      =     382.30435806 Ry
     xc contribution           =     -64.74323206 Ry
     ewald contribution        =     268.45421840 Ry
     scf correction            =      -0.00356208 Ry
     one-center paw contrib.   =     -74.04330814 Ry
      -> PAW hartree energy AE =      10.01900304 Ry
      -> PAW hartree energy PS =     -10.00991319 Ry
      -> PAW xc energy AE      =     -10.80344368 Ry
      -> PAW xc energy PS      =       4.62389038 Ry
      -> total E_H with PAW    =     382.31344791 Ry
      -> total E_XC with PAW   =     -70.92278536 Ry

     iteration #  6     ecut=    60.00 Ry     beta= 0.70
     Davidson diagonalization with overlap
     ethr =  3.89E-08,  avg # of iterations =  4.0

     negative rho (up, down):  2.249E-04 0.000E+00

     total cpu time spent up to now is       13.4 secs

          k = 0.0000 0.0000 0.0000     band energies (ev):

   -20.8367 -20.8166 -18.2064 -18.1999 -18.1029 -18.0934 -14.7041 -14.6835
   -14.6359 -14.6278 -12.8527 -12.8470 -11.2952 -11.2913 -10.4106 -10.4087
   -10.0408 -10.0284  -9.9473  -9.9350  -8.7137  -8.5164  -7.9506  -7.9478
    -7.8462  -7.8442  -5.9670  -5.9451  -5.7864  -5.7210

     occupation numbers 
     1.0000   1.0000   1.0000   1.0000   1.0000   1.0000   1.0000   1.0000
     1.0000   1.0000   1.0000   1.0000   1.0000   1.0000   1.0000   1.0000
     1.0000   1.0000   1.0000   1.0000   1.0000   1.0000   1.0000   1.0000
     1.0000   1.0000   1.0000   1.0000   1.0000   1.0000

     highest occupied level (ev):    -5.7210

!    total energy              =    -235.23663922 Ry

     total all-electron energy =      -928.405754 Ry
     estimated scf accuracy    <       0.00000190 Ry

     The total energy is the sum of the following terms:
     one-electron contribution =    -747.21727448 Ry
     hartree contribution      =     382.30749907 Ry
     xc contribution           =     -64.74217695 Ry
     ewald contribution        =     268.45421840 Ry
     scf correction            =       0.00424363 Ry
     one-center paw contrib.   =     -74.04314889 Ry
      -> PAW hartree energy AE =      10.02296249 Ry
      -> PAW hartree energy PS =     -10.01387259 Ry
      -> PAW xc energy AE      =     -10.80435592 Ry
      -> PAW xc energy PS      =       4.62480957 Ry
      -> total E_H with PAW    =     382.31658897 Ry
      -> total E_XC with PAW   =     -70.92172330 Ry

     iteration #  7     ecut=    60.00 Ry     beta= 0.70
     Davidson diagonalization with overlap
     ethr =  3.17E-09,  avg # of iterations =  5.0

     negative rho (up, down):  2.249E-04 0.000E+00

     total cpu time spent up to now is       14.2 secs

          k = 0.0000 0.0000 0.0000     band energies (ev):

   -20.8344 -20.8144 -18.2058 -18.1986 -18.1015 -18.0927 -14.7040 -14.6835
   -14.6361 -14.6276 -12.8523 -12.8464 -11.2965 -11.2923 -10.4093 -10.4081
   -10.0403 -10.0274  -9.9460  -9.9345  -8.7118  -8.5150  -7.9500  -7.9478
    -7.8461  -7.8436  -5.9659  -5.9439  -5.7849  -5.7196

     occupation numbers 
     1.0000   1.0000   1.0000   1.0000   1.0000   1.0000   1.0000   1.0000
     1.0000   1.0000   1.0000   1.0000   1.0000   1.0000   1.0000   1.0000
     1.0000   1.0000   1.0000   1.0000   1.0000   1.0000   1.0000   1.0000
     1.0000   1.0000   1.0000   1.0000   1.0000   1.0000

     highest occupied level (ev):    -5.7196

!    total energy              =    -235.23663986 Ry

     total all-electron energy =      -928.405754 Ry
     estimated scf accuracy    <       0.00000077 Ry

     The total energy is the sum of the following terms:
     one-electron contribution =    -747.20663285 Ry
     hartree contribution      =     382.30591591 Ry
     xc contribution           =     -64.74205795 Ry
     ewald contribution        =     268.45421840 Ry
     scf correction            =      -0.00502257 Ry
     one-center paw contrib.   =     -74.04306081 Ry
      -> PAW hartree energy AE =      10.02329047 Ry
      -> PAW hartree energy PS =     -10.01420152 Ry
      -> PAW xc energy AE      =     -10.80442196 Ry
      -> PAW xc energy PS      =       4.62488606 Ry
      -> total E_H with PAW    =     382.31500486 Ry
      -> total E_XC with PAW   =     -70.92159385 Ry

     iteration #  8     ecut=    60.00 Ry     beta= 0.70
     Davidson diagonalization with overlap
     ethr =  1.29E-09,  avg # of iterations =  4.0

     negative rho (up, down):  2.248E-04 0.000E+00

     total cpu time spent up to now is       14.9 secs

          k = 0.0000 0.0000 0.0000     band energies (ev):

   -20.8348 -20.8147 -18.2061 -18.1992 -18.1019 -18.0930 -14.7044 -14.6839
   -14.6364 -14.6281 -12.8525 -12.8467 -11.2967 -11.2926 -10.4098 -10.4085
   -10.0405 -10.0278  -9.9463  -9.9347  -8.7123  -8.5152  -7.9505  -7.9481
    -7.8464  -7.8441  -5.9662  -5.9443  -5.7853  -5.7201

     occupation numbers 
     1.0000   1.0000   1.0000   1.0000   1.0000   1.0000   1.0000   1.0000
     1.0000   1.0000   1.0000   1.0000   1.0000   1.0000   1.0000   1.0000
     1.0000   1.0000   1.0000   1.0000   1.0000   1.0000   1.0000   1.0000
     1.0000   1.0000   1.0000   1.0000   1.0000   1.0000

     highest occupied level (ev):    -5.7201

!    total energy              =    -235.23663995 Ry

     total all-electron energy =      -928.405755 Ry
     estimated scf accuracy    <       0.00000006 Ry

     The total energy is the sum of the following terms:
     one-electron contribution =    -747.20816382 Ry
     hartree contribution      =     382.30442505 Ry
     xc contribution           =     -64.74205551 Ry
     ewald contribution        =     268.45421840 Ry
     scf correction            =      -0.00206986 Ry
     one-center paw contrib.   =     -74.04299422 Ry
      -> PAW hartree energy AE =      10.02381875 Ry
      -> PAW hartree energy PS =     -10.01473003 Ry
      -> PAW xc energy AE      =     -10.80454099 Ry
      -> PAW xc energy PS      =       4.62500847 Ry
      -> total E_H with PAW    =     382.31351377 Ry
      -> total E_XC with PAW   =     -70.92158803 Ry

     iteration #  9     ecut=    60.00 Ry     beta= 0.70
     Davidson diagonalization with overlap
     ethr =  1.02E-10,  avg # of iterations =  5.0

     negative rho (up, down):  2.248E-04 0.000E+00

     total cpu time spent up to now is       15.7 secs

          k = 0.0000 0.0000 0.0000     band energies (ev):

   -20.8353 -20.8152 -18.2065 -18.1996 -18.1024 -18.0932 -14.7047 -14.6842
   -14.6367 -14.6284 -12.8527 -12.8469 -11.2968 -11.2927 -10.4104 -10.4089
   -10.0407 -10.0281  -9.9466  -9.9348  -8.7128  -8.5157  -7.9508  -7.9483
    -7.8466  -7.8444  -5.9667  -5.9448  -5.7858  -5.7205

     occupation numbers 
     1.0000   1.0000   1.0000   1.0000   1.0000   1.0000   1.0000   1.0000
     1.0000   1.0000   1.0000   1.0000   1.0000   1.0000   1.0000   1.0000
     1.0000   1.0000   1.0000   1.0000   1.0000   1.0000   1.0000   1.0000
     1.0000   1.0000   1.0000   1.0000   1.0000   1.0000

     highest occupied level (ev):    -5.7205

!    total energy              =    -235.23663998 Ry

     total all-electron energy =      -928.405755 Ry
     estimated scf accuracy    <       0.00000003 Ry

     The total energy is the sum of the following terms:
     one-electron contribution =    -747.21099824 Ry
     hartree contribution      =     382.30444258 Ry
     xc contribution           =     -64.74204445 Ry
     ewald contribution        =     268.45421840 Ry
     scf correction            =       0.00073917 Ry
     one-center paw contrib.   =     -74.04299744 Ry
      -> PAW hartree energy AE =      10.02385752 Ry
      -> PAW hartree energy PS =     -10.01476877 Ry
      -> PAW xc energy AE      =     -10.80455017 Ry
      -> PAW xc energy PS      =       4.62501738 Ry
      -> total E_H with PAW    =     382.31353132 Ry
      -> total E_XC with PAW   =     -70.92157725 Ry

     iteration # 10     ecut=    60.00 Ry     beta= 0.70
     Davidson diagonalization with overlap
     ethr =  5.32E-11,  avg # of iterations =  3.0

     negative rho (up, down):  2.248E-04 0.000E+00

     total cpu time spent up to now is       16.4 secs

     End of self-consistent calculation

          k = 0.0000 0.0000 0.0000 (178925 PWs)   bands (ev):

   -20.8353 -20.8152 -18.2065 -18.1996 -18.1023 -18.0933 -14.7047 -14.6842
   -14.6367 -14.6284 -12.8527 -12.8469 -11.2968 -11.2927 -10.4104 -10.4089
   -10.0407 -10.0281  -9.9466  -9.9349  -8.7128  -8.5157  -7.9508  -7.9484
    -7.8466  -7.8444  -5.9667  -5.9448  -5.7857  -5.7205

     occupation numbers 
     1.0000   1.0000   1.0000   1.0000   1.0000   1.0000   1.0000   1.0000
     1.0000   1.0000   1.0000   1.0000   1.0000   1.0000   1.0000   1.0000
     1.0000   1.0000   1.0000   1.0000   1.0000   1.0000   1.0000   1.0000
     1.0000   1.0000   1.0000   1.0000   1.0000   1.0000

     highest occupied level (ev):    -5.7205

!    total energy              =    -235.23663998 Ry

     total all-electron energy =      -928.405755 Ry
     estimated scf accuracy    <          8.1E-09 Ry

     The total energy is the sum of the following terms:
     one-electron contribution =    -747.21102192 Ry
     hartree contribution      =     382.30527085 Ry
     xc contribution           =     -64.74209636 Ry
     ewald contribution        =     268.45421840 Ry
     one-center paw contrib.   =     -74.04301094 Ry
      -> PAW hartree energy AE =      10.02406758 Ry
      -> PAW hartree energy PS =     -10.01497854 Ry
      -> PAW xc energy AE      =     -10.80460157 Ry
      -> PAW xc energy PS      =       4.62506610 Ry
      -> total E_H with PAW    =     382.31435989 Ry
      -> total E_XC with PAW   =     -70.92163183 Ry

     convergence has been achieved in  10 iterations

     Writing output data file ./tmp/ben2.save/
 
     init_run     :      5.00s CPU      6.50s WALL (       1 calls)
     electrons    :      7.24s CPU     10.63s WALL (       1 calls)

     Called by init_run:
     wfcinit      :      0.15s CPU      0.82s WALL (       1 calls)
     wfcinit:atom :      0.00s CPU      0.00s WALL (       1 calls)
     wfcinit:wfcr :      0.15s CPU      0.81s WALL (       1 calls)
     potinit      :      0.19s CPU      0.37s WALL (       1 calls)
     hinit0       :      0.19s CPU      0.62s WALL (       1 calls)

     Called by electrons:
     c_bands      :      3.00s CPU      3.35s WALL (      10 calls)
     sum_band     :      1.47s CPU      1.78s WALL (      10 calls)
     v_of_rho     :      1.41s CPU      1.51s WALL (      11 calls)
     v_h          :      0.12s CPU      0.13s WALL (      11 calls)
     v_xc         :      1.29s CPU      1.37s WALL (      11 calls)
     newd         :      0.71s CPU      1.14s WALL (      11 calls)
     PAW_pot      :      0.21s CPU      0.35s WALL (      11 calls)
     mix_rho      :      0.25s CPU      0.35s WALL (      10 calls)

     Called by c_bands:
     init_us_2    :      0.03s CPU      0.04s WALL (      21 calls)
     cegterg      :      2.96s CPU      3.29s WALL (      10 calls)

     Called by sum_band:
     sum_band:wei :      0.00s CPU      0.00s WALL (      10 calls)
     sum_band:loo :      0.40s CPU      0.41s WALL (      10 calls)
     sum_band:buf :      0.00s CPU      0.00s WALL (      10 calls)
     sum_band:ini :      0.02s CPU      0.02s WALL (      10 calls)
     sum_band:cal :      0.04s CPU      0.05s WALL (      10 calls)
     sum_band:bec :      0.00s CPU      0.00s WALL (      10 calls)
     addusdens    :      0.90s CPU      1.20s WALL (      10 calls)
     addusd:skk   :      0.10s CPU      0.14s WALL (      20 calls)
     addusd:dgemm :      0.52s CPU      0.76s WALL (      20 calls)
     addusd:qvan2 :      0.21s CPU      0.22s WALL (      20 calls)

     Called by *egterg:
     cdiaghg      :      0.06s CPU      0.90s WALL (      47 calls)
     cegterg:over :      0.10s CPU      0.10s WALL (      37 calls)
     cegterg:upda :      0.04s CPU      0.04s WALL (      37 calls)
     cegterg:last :      0.12s CPU      0.12s WALL (      28 calls)
     h_psi        :      2.52s CPU      2.64s WALL (      48 calls)
     s_psi        :      0.18s CPU      0.18s WALL (      48 calls)
     g_psi        :      0.00s CPU      0.00s WALL (      37 calls)

     Called by h_psi:
     h_psi:calbec :      0.18s CPU      0.22s WALL (      48 calls)
     vloc_psi     :      2.14s CPU      2.21s WALL (      48 calls)
     add_vuspsi   :      0.19s CPU      0.20s WALL (      48 calls)

     General routines
     calbec       :      0.22s CPU      0.27s WALL (      58 calls)
     fft          :      1.14s CPU      1.61s WALL (     141 calls)
     ffts         :      0.07s CPU      0.08s WALL (      21 calls)
     fftw         :      2.30s CPU      2.37s WALL (    2362 calls)
     interpolate  :      0.14s CPU      0.16s WALL (      11 calls)
 
     Parallel routines
     fft_scatt_xy :      0.26s CPU      0.27s WALL (    2524 calls)
     fft_scatt_yz :      2.28s CPU      2.40s WALL (    2524 calls)

     PAW routines
     PAW_pot      :      0.21s CPU      0.35s WALL (      11 calls)
 
     PWSCF        :     13.21s CPU     20.00s WALL

 
   This run was terminated on:   4:27:32  23Dec2021            

=------------------------------------------------------------------------------=
   JOB DONE.
=------------------------------------------------------------------------------=
