
     Program PWSCF v.6.6 starts on 22Dec2021 at 10:59:51 

     This program is part of the open-source Quantum ESPRESSO suite
     for quantum simulation of materials; please cite
         "P. Giannozzi et al., J. Phys.:Condens. Matter 21 395502 (2009);
         "P. Giannozzi et al., J. Phys.:Condens. Matter 29 465901 (2017);
          URL http://www.quantum-espresso.org", 
     in publications or presentations arising from this work. More details at
     http://www.quantum-espresso.org/quote

     Parallel version (MPI & OpenMP), running on     128 processor cores
     Number of MPI processes:               128
     Threads/MPI process:                     1

     MPI processes distributed on     1 nodes
     R & G space division:  proc/nbgrp/npool/nimage =     128
     Fft bands division:     nmany     =       1
     Waiting for input...
     Reading input from standard input

     Current dimensions of program PWSCF are:
     Max number of different atomic species (ntypx) = 10
     Max number of k-points (npk) =  40000
     Max angular momentum in pseudopotentials (lmaxx) =  3
     Message from routine iosys:
     restart disabled: needed files not found
     file C.pbe-n-kjpaw_psl.1.0.0.UPF: wavefunction(s)  2S 2P renormalized
     file H.pbe-kjpaw_psl.1.0.0.UPF: wavefunction(s)  1S renormalized

     Subspace diagonalization in iterative solution of the eigenvalue problem:
     a serial algorithm will be used

 
     Parallelization info
     --------------------
     sticks:   dense  smooth     PW     G-vecs:    dense   smooth      PW
     Min         299     119     29                73597    18607    2317
     Max         300     120     30                73606    18622    2334
     Sum       38393   15329   3833              9421241  2382657  297901
 


     bravais-lattice index     =            0
     lattice parameter (alat)  =      28.3459  a.u.
     unit-cell volume          =   37959.3815 (a.u.)^3
     number of atoms/cell      =           24
     number of atomic types    =            2
     number of electrons       =        60.00
     number of Kohn-Sham states=           30
     kinetic-energy cutoff     =      60.0000  Ry
     charge density cutoff     =     600.0000  Ry
     convergence threshold     =      1.0E-08
     mixing beta               =       0.7000
     number of iterations used =            8  plain     mixing
     Exchange-correlation= SLA PW PBX PBC
                           (   1   4   3   4   0   0   0)

     celldm(1)=  28.345892  celldm(2)=   0.000000  celldm(3)=   0.000000
     celldm(4)=   0.000000  celldm(5)=   0.000000  celldm(6)=   0.000000

     crystal axes: (cart. coord. in units of alat)
               a(1) = (   1.000000   0.000000   0.000000 )  
               a(2) = (   0.000000   1.000000   0.000000 )  
               a(3) = (   0.000000   0.000000   1.666667 )  

     reciprocal axes: (cart. coord. in units 2 pi/alat)
               b(1) = (  1.000000  0.000000  0.000000 )  
               b(2) = (  0.000000  1.000000  0.000000 )  
               b(3) = (  0.000000  0.000000  0.600000 )  


     PseudoPot. # 1 for C  read from file:
     /home/k0151/k015124/src/pseudo/C.pbe-n-kjpaw_psl.1.0.0.UPF
     MD5 check sum: 5f16ad9a65e90284d1d834d4ab3b0f7d
     Pseudo is Projector augmented-wave + core cor, Zval =  4.0
     Generated using "atomic" code by A. Dal Corso v.6.3
     Shape of augmentation charge: PSQ
     Using radial grid of 1073 points,  4 beta functions with: 
                l(1) =   0
                l(2) =   0
                l(3) =   1
                l(4) =   1
     Q(r) pseudized with 0 coefficients 


     PseudoPot. # 2 for H  read from file:
     /home/k0151/k015124/src/pseudo/H.pbe-kjpaw_psl.1.0.0.UPF
     MD5 check sum: d81a744832360e4a8af0b0b5b123bc2a
     Pseudo is Projector augmented-wave, Zval =  1.0
     Generated using "atomic" code by A. Dal Corso v.6.3MaX
     Shape of augmentation charge: PSQ
     Using radial grid of  929 points,  2 beta functions with: 
                l(1) =   0
                l(2) =   0
     Q(r) pseudized with 0 coefficients 


     atomic species   valence    mass     pseudopotential
        C              4.00    12.01100     C ( 1.00)
        H              1.00     1.00800     H ( 1.00)

     No symmetry found


                                    s                        frac. trans.

      isym =  1     identity                                     

 cryst.   s( 1) = (     1          0          0      )
                  (     0          1          0      )
                  (     0          0          1      )

 cart.    s( 1) = (  1.0000000  0.0000000  0.0000000 )
                  (  0.0000000  1.0000000  0.0000000 )
                  (  0.0000000  0.0000000  1.0000000 )


   Cartesian axes

     site n.     atom                  positions (alat units)
         1           C   tau(   1) = (   0.5926667   0.5000000   0.8333333  )
         2           C   tau(   2) = (   0.5466667   0.4200000   0.8333333  )
         3           C   tau(   3) = (   0.4533333   0.4200000   0.8333333  )
         4           C   tau(   4) = (   0.4073333   0.5000000   0.8333333  )
         5           C   tau(   5) = (   0.4533333   0.5800000   0.8333333  )
         6           C   tau(   6) = (   0.5466667   0.5800000   0.8333333  )
         7           H   tau(   7) = (   0.6593333   0.5000000   0.8333333  )
         8           H   tau(   8) = (   0.5800000   0.3620000   0.8333333  )
         9           H   tau(   9) = (   0.4200000   0.3620000   0.8333333  )
        10           H   tau(  10) = (   0.3406667   0.5000000   0.8333333  )
        11           H   tau(  11) = (   0.4200000   0.6380000   0.8333333  )
        12           H   tau(  12) = (   0.5800000   0.6380000   0.8333333  )
        13           C   tau(  13) = (   0.7133333   0.5466667   1.1000000  )
        14           C   tau(  14) = (   0.7133333   0.4533333   1.1000000  )
        15           C   tau(  15) = (   0.6333333   0.4073333   1.1000000  )
        16           C   tau(  16) = (   0.5533333   0.4533333   1.1000000  )
        17           C   tau(  17) = (   0.5533333   0.5466667   1.1000000  )
        18           C   tau(  18) = (   0.6333333   0.5926667   1.1000000  )
        19           H   tau(  19) = (   0.7713333   0.5800000   1.1000000  )
        20           H   tau(  20) = (   0.7713333   0.4200000   1.1000000  )
        21           H   tau(  21) = (   0.6333333   0.3406667   1.1000000  )
        22           H   tau(  22) = (   0.4953333   0.4206667   1.1000000  )
        23           H   tau(  23) = (   0.4953333   0.5800000   1.1000000  )
        24           H   tau(  24) = (   0.6333333   0.6593333   1.1000000  )

   Crystallographic axes

     site n.     atom                  positions (cryst. coord.)
         1           C   tau(   1) = (  0.5926667  0.5000000  0.5000000  )
         2           C   tau(   2) = (  0.5466667  0.4200000  0.5000000  )
         3           C   tau(   3) = (  0.4533333  0.4200000  0.5000000  )
         4           C   tau(   4) = (  0.4073333  0.5000000  0.5000000  )
         5           C   tau(   5) = (  0.4533333  0.5800000  0.5000000  )
         6           C   tau(   6) = (  0.5466667  0.5800000  0.5000000  )
         7           H   tau(   7) = (  0.6593333  0.5000000  0.5000000  )
         8           H   tau(   8) = (  0.5800000  0.3620000  0.5000000  )
         9           H   tau(   9) = (  0.4200000  0.3620000  0.5000000  )
        10           H   tau(  10) = (  0.3406667  0.5000000  0.5000000  )
        11           H   tau(  11) = (  0.4200000  0.6380000  0.5000000  )
        12           H   tau(  12) = (  0.5800000  0.6380000  0.5000000  )
        13           C   tau(  13) = (  0.7133333  0.5466667  0.6600000  )
        14           C   tau(  14) = (  0.7133333  0.4533333  0.6600000  )
        15           C   tau(  15) = (  0.6333333  0.4073333  0.6600000  )
        16           C   tau(  16) = (  0.5533333  0.4533333  0.6600000  )
        17           C   tau(  17) = (  0.5533333  0.5466667  0.6600000  )
        18           C   tau(  18) = (  0.6333333  0.5926667  0.6600000  )
        19           H   tau(  19) = (  0.7713333  0.5800000  0.6600000  )
        20           H   tau(  20) = (  0.7713333  0.4200000  0.6600000  )
        21           H   tau(  21) = (  0.6333333  0.3406667  0.6600000  )
        22           H   tau(  22) = (  0.4953333  0.4206667  0.6600000  )
        23           H   tau(  23) = (  0.4953333  0.5800000  0.6600000  )
        24           H   tau(  24) = (  0.6333333  0.6593333  0.6600000  )

     number of k points=     1
                       cart. coord. in units 2pi/alat
        k(    1) = (   0.0000000   0.0000000   0.0000000), wk =   2.0000000

                       cryst. coord.
        k(    1) = (   0.0000000   0.0000000   0.0000000), wk =   2.0000000

     Dense  grid:  9421241 G-vectors     FFT dimensions: ( 225, 225, 375)

     Smooth grid:  2382657 G-vectors     FFT dimensions: ( 144, 144, 240)

     Dynamical RAM for                 wfc:       1.07 MB

     Dynamical RAM for     wfc (w. buffer):       1.07 MB

     Dynamical RAM for           str. fact:       2.25 MB

     Dynamical RAM for           local pot:       0.00 MB

     Dynamical RAM for          nlocal pot:       4.26 MB

     Dynamical RAM for                qrad:       1.12 MB

     Dynamical RAM for          rho,v,vnew:       6.85 MB

     Dynamical RAM for               rhoin:       2.28 MB

     Dynamical RAM for            rho*nmix:      17.97 MB

     Dynamical RAM for           G-vectors:       4.35 MB

     Dynamical RAM for          h,s,v(r/c):       0.16 MB

     Dynamical RAM for          <psi|beta>:       0.05 MB

     Dynamical RAM for                 psi:       2.13 MB

     Dynamical RAM for                hpsi:       2.13 MB

     Dynamical RAM for                spsi:       2.13 MB

     Dynamical RAM for      wfcinit/wfcrot:       2.15 MB

     Dynamical RAM for           addusdens:      61.77 MB

     Estimated static dynamical RAM per process >      49.31 MB

     Estimated max dynamical RAM per process >     143.76 MB

     Estimated total dynamical RAM >      17.97 GB
     Cannot read rho : file not found

     Initial potential from superposition of free atoms

     starting charge   59.99939, renormalised to   60.00000

     negative rho (up, down):  2.065E-04 0.000E+00
     Message from routine qexsd_readschema :
     xml data file ./tmp/ben2_h4.save/data-file-schema.xml not found
     Cannot read wfcs: file not found
     Starting wfcs are   60 randomized atomic wfcs
     Checking if some PAW data can be deallocated... 
       PAW data deallocated on   62 nodes for type:  1
       PAW data deallocated on   66 nodes for type:  2

     total cpu time spent up to now is       14.7 secs

     Self-consistent Calculation

     iteration #  1     ecut=    60.00 Ry     beta= 0.70
     Davidson diagonalization with overlap
     ethr =  1.00E-05,  avg # of iterations =  7.0

     negative rho (up, down):  3.280E-04 0.000E+00

     total cpu time spent up to now is       16.5 secs

          k = 0.0000 0.0000 0.0000     band energies (ev):

   -27.0721 -27.0614 -24.3869 -24.3864 -24.2244 -24.2143 -20.7597 -20.7538
   -20.6667 -20.6571 -18.6049 -18.5945 -17.0729 -17.0685 -16.8478 -16.8349
   -16.0459 -16.0411 -15.9112 -15.8998 -14.1215 -14.1053 -14.0030 -14.0013
   -13.7144 -13.5779 -11.0382 -11.0232 -10.8806 -10.8633

     occupation numbers 
     1.0000   1.0000   1.0000   1.0000   1.0000   1.0000   1.0000   1.0000
     1.0000   1.0000   1.0000   1.0000   1.0000   1.0000   1.0000   1.0000
     1.0000   1.0000   1.0000   1.0000   1.0000   1.0000   1.0000   1.0000
     1.0000   1.0000   1.0000   1.0000   1.0000   1.0000

     highest occupied level (ev):   -10.8633

!    total energy              =    -234.40627038 Ry

     total all-electron energy =      -927.575385 Ry
     estimated scf accuracy    <       3.40725574 Ry

     The total energy is the sum of the following terms:
     one-electron contribution =    -922.17631978 Ry
     hartree contribution      =     467.46346800 Ry
     xc contribution           =     -65.27417087 Ry
     ewald contribution        =     347.89195912 Ry
     scf correction            =      11.97704846 Ry
     one-center paw contrib.   =     -74.28825530 Ry
      -> PAW hartree energy AE =       9.24092374 Ry
      -> PAW hartree energy PS =      -9.22995495 Ry
      -> PAW xc energy AE      =     -10.64470002 Ry
      -> PAW xc energy PS      =       4.44276261 Ry
      -> total E_H with PAW    =     467.47443678 Ry
      -> total E_XC with PAW   =     -71.47610827 Ry

     iteration #  2     ecut=    60.00 Ry     beta= 0.70
     Davidson diagonalization with overlap
     ethr =  5.68E-03,  avg # of iterations =  2.0

     negative rho (up, down):  3.737E-04 0.000E+00

     total cpu time spent up to now is       18.0 secs

          k = 0.0000 0.0000 0.0000     band energies (ev):

   -19.0554 -19.0331 -16.8251 -16.7954 -16.7727 -16.7532 -13.7198 -13.7128
   -13.6649 -13.6496 -11.8349 -11.8294 -10.9601 -10.9542  -8.8205  -8.7931
    -8.7719  -8.7671  -8.7313  -8.7158  -7.2739  -7.0129  -6.7857  -6.7818
    -6.6868  -6.6825  -4.6065  -4.4819  -4.4247  -4.3728

     occupation numbers 
     1.0000   1.0000   1.0000   1.0000   1.0000   1.0000   1.0000   1.0000
     1.0000   1.0000   1.0000   1.0000   1.0000   1.0000   1.0000   1.0000
     1.0000   1.0000   1.0000   1.0000   1.0000   1.0000   1.0000   1.0000
     1.0000   1.0000   1.0000   1.0000   1.0000   1.0000

     highest occupied level (ev):    -4.3728

!    total energy              =    -235.14104471 Ry

     total all-electron energy =      -928.310159 Ry
     estimated scf accuracy    <       0.50888734 Ry

     The total energy is the sum of the following terms:
     one-electron contribution =    -897.75271850 Ry
     hartree contribution      =     459.48348587 Ry
     xc contribution           =     -64.52770840 Ry
     ewald contribution        =     347.89195912 Ry
     scf correction            =      -6.11216570 Ry
     one-center paw contrib.   =     -74.12389710 Ry
      -> PAW hartree energy AE =       9.31456431 Ry
      -> PAW hartree energy PS =      -9.30503365 Ry
      -> PAW xc energy AE      =     -10.64423660 Ry
      -> PAW xc energy PS      =       4.45775037 Ry
      -> total E_H with PAW    =     459.49301654 Ry
      -> total E_XC with PAW   =     -70.71419463 Ry

     iteration #  3     ecut=    60.00 Ry     beta= 0.70
     Davidson diagonalization with overlap
     ethr =  8.48E-04,  avg # of iterations =  2.0

     negative rho (up, down):  3.462E-04 0.000E+00

     total cpu time spent up to now is       19.2 secs

          k = 0.0000 0.0000 0.0000     band energies (ev):

   -21.4178 -21.3992 -18.7150 -18.7127 -18.6127 -18.6095 -15.1620 -15.1580
   -15.1002 -15.0944 -13.3645 -13.3581 -11.7236 -11.7184 -10.9126 -10.9110
   -10.5684 -10.5669 -10.4758 -10.4753  -9.2039  -8.9759  -8.4491  -8.4451
    -8.3467  -8.3417  -6.4135  -6.3565  -6.2586  -6.2116

     occupation numbers 
     1.0000   1.0000   1.0000   1.0000   1.0000   1.0000   1.0000   1.0000
     1.0000   1.0000   1.0000   1.0000   1.0000   1.0000   1.0000   1.0000
     1.0000   1.0000   1.0000   1.0000   1.0000   1.0000   1.0000   1.0000
     1.0000   1.0000   1.0000   1.0000   1.0000   1.0000

     highest occupied level (ev):    -6.2116

!    total energy              =    -235.23454154 Ry

     total all-electron energy =      -928.403656 Ry
     estimated scf accuracy    <       0.01395278 Ry

     The total energy is the sum of the following terms:
     one-electron contribution =    -905.92004465 Ry
     hartree contribution      =     460.82132954 Ry
     xc contribution           =     -64.71792912 Ry
     ewald contribution        =     347.89195912 Ry
     scf correction            =       0.74633721 Ry
     one-center paw contrib.   =     -74.05619363 Ry
      -> PAW hartree energy AE =       9.85917589 Ry
      -> PAW hartree energy PS =      -9.85003065 Ry
      -> PAW xc energy AE      =     -10.76713241 Ry
      -> PAW xc energy PS      =       4.58652165 Ry
      -> total E_H with PAW    =     460.83047478 Ry
      -> total E_XC with PAW   =     -70.89853987 Ry

     iteration #  4     ecut=    60.00 Ry     beta= 0.70
     Davidson diagonalization with overlap
     ethr =  2.33E-05,  avg # of iterations =  2.0

     negative rho (up, down):  3.497E-04 0.000E+00

     total cpu time spent up to now is       20.3 secs

          k = 0.0000 0.0000 0.0000     band energies (ev):

   -21.0554 -21.0368 -18.4216 -18.4149 -18.3090 -18.3069 -14.9005 -14.8968
   -14.8412 -14.8338 -13.0527 -13.0459 -11.4835 -11.4777 -10.6317 -10.6312
   -10.2454 -10.2360 -10.1437 -10.1383  -8.9331  -8.7054  -8.1563  -8.1524
    -8.0530  -8.0491  -6.1717  -6.1074  -6.0026  -5.9628

     occupation numbers 
     1.0000   1.0000   1.0000   1.0000   1.0000   1.0000   1.0000   1.0000
     1.0000   1.0000   1.0000   1.0000   1.0000   1.0000   1.0000   1.0000
     1.0000   1.0000   1.0000   1.0000   1.0000   1.0000   1.0000   1.0000
     1.0000   1.0000   1.0000   1.0000   1.0000   1.0000

     highest occupied level (ev):    -5.9628

!    total energy              =    -235.23626901 Ry

     total all-electron energy =      -928.405384 Ry
     estimated scf accuracy    <       0.00050305 Ry

     The total energy is the sum of the following terms:
     one-electron contribution =    -905.62861659 Ry
     hartree contribution      =     461.08898370 Ry
     xc contribution           =     -64.74499711 Ry
     ewald contribution        =     347.89195912 Ry
     scf correction            =       0.20239487 Ry
     one-center paw contrib.   =     -74.04599298 Ry
      -> PAW hartree energy AE =       9.98229885 Ry
      -> PAW hartree energy PS =      -9.97319789 Ry
      -> PAW xc energy AE      =     -10.79506866 Ry
      -> PAW xc energy PS      =       4.61531821 Ry
      -> total E_H with PAW    =     461.09808465 Ry
      -> total E_XC with PAW   =     -70.92474756 Ry

     iteration #  5     ecut=    60.00 Ry     beta= 0.70
     Davidson diagonalization with overlap
     ethr =  8.38E-07,  avg # of iterations =  4.0

     negative rho (up, down):  3.504E-04 0.000E+00

     total cpu time spent up to now is       21.6 secs

          k = 0.0000 0.0000 0.0000     band energies (ev):

   -20.9767 -20.9578 -18.3516 -18.3469 -18.2469 -18.2453 -14.8474 -14.8435
   -14.7877 -14.7806 -13.0020 -12.9954 -11.4524 -11.4470 -10.5588 -10.5585
   -10.1856 -10.1776 -10.0906 -10.0854  -8.8692  -8.6392  -8.1012  -8.0978
    -7.9984  -7.9943  -6.1096  -6.0440  -5.9448  -5.9021

     occupation numbers 
     1.0000   1.0000   1.0000   1.0000   1.0000   1.0000   1.0000   1.0000
     1.0000   1.0000   1.0000   1.0000   1.0000   1.0000   1.0000   1.0000
     1.0000   1.0000   1.0000   1.0000   1.0000   1.0000   1.0000   1.0000
     1.0000   1.0000   1.0000   1.0000   1.0000   1.0000

     highest occupied level (ev):    -5.9021

!    total energy              =    -235.23643571 Ry

     total all-electron energy =      -928.405550 Ry
     estimated scf accuracy    <       0.00002247 Ry

     The total energy is the sum of the following terms:
     one-electron contribution =    -905.41170181 Ry
     hartree contribution      =     461.07084782 Ry
     xc contribution           =     -64.74061925 Ry
     ewald contribution        =     347.89195912 Ry
     scf correction            =      -0.00348444 Ry
     one-center paw contrib.   =     -74.04343715 Ry
      -> PAW hartree energy AE =      10.01675239 Ry
      -> PAW hartree energy PS =     -10.00766339 Ry
      -> PAW xc energy AE      =     -10.80288480 Ry
      -> PAW xc energy PS      =       4.62334020 Ry
      -> total E_H with PAW    =     461.07993682 Ry
      -> total E_XC with PAW   =     -70.92016384 Ry

     iteration #  6     ecut=    60.00 Ry     beta= 0.70
     Davidson diagonalization with overlap
     ethr =  3.74E-08,  avg # of iterations =  5.0

     negative rho (up, down):  3.502E-04 0.000E+00

     total cpu time spent up to now is       22.8 secs

          k = 0.0000 0.0000 0.0000     band energies (ev):

   -20.9844 -20.9655 -18.3557 -18.3517 -18.2513 -18.2490 -14.8497 -14.8454
   -14.7893 -14.7828 -13.0071 -13.0009 -11.4533 -11.4485 -10.5621 -10.5609
   -10.1920 -10.1848 -10.0976 -10.0916  -8.8730  -8.6429  -8.1051  -8.1022
    -8.0026  -7.9983  -6.1125  -6.0474  -5.9475  -5.9053

     occupation numbers 
     1.0000   1.0000   1.0000   1.0000   1.0000   1.0000   1.0000   1.0000
     1.0000   1.0000   1.0000   1.0000   1.0000   1.0000   1.0000   1.0000
     1.0000   1.0000   1.0000   1.0000   1.0000   1.0000   1.0000   1.0000
     1.0000   1.0000   1.0000   1.0000   1.0000   1.0000

     highest occupied level (ev):    -5.9053

!    total energy              =    -235.23644179 Ry

     total all-electron energy =      -928.405556 Ry
     estimated scf accuracy    <       0.00000408 Ry

     The total energy is the sum of the following terms:
     one-electron contribution =    -905.41150993 Ry
     hartree contribution      =     461.06772606 Ry
     xc contribution           =     -64.73931707 Ry
     ewald contribution        =     347.89195912 Ry
     scf correction            =      -0.00219030 Ry
     one-center paw contrib.   =     -74.04310967 Ry
      -> PAW hartree energy AE =      10.02091059 Ry
      -> PAW hartree energy PS =     -10.01182370 Ry
      -> PAW xc energy AE      =     -10.80382059 Ry
      -> PAW xc energy PS      =       4.62430607 Ry
      -> total E_H with PAW    =     461.07681295 Ry
      -> total E_XC with PAW   =     -70.91883160 Ry

     iteration #  7     ecut=    60.00 Ry     beta= 0.70
     Davidson diagonalization with overlap
     ethr =  6.81E-09,  avg # of iterations =  5.0

     negative rho (up, down):  3.501E-04 0.000E+00

     total cpu time spent up to now is       24.1 secs

          k = 0.0000 0.0000 0.0000     band energies (ev):

   -20.9846 -20.9658 -18.3568 -18.3523 -18.2511 -18.2499 -14.8504 -14.8464
   -14.7906 -14.7834 -13.0080 -13.0015 -11.4548 -11.4495 -10.5623 -10.5621
   -10.1933 -10.1855 -10.0976 -10.0927  -8.8729  -8.6433  -8.1063  -8.1029
    -8.0033  -7.9992  -6.1128  -6.0478  -5.9479  -5.9052

     occupation numbers 
     1.0000   1.0000   1.0000   1.0000   1.0000   1.0000   1.0000   1.0000
     1.0000   1.0000   1.0000   1.0000   1.0000   1.0000   1.0000   1.0000
     1.0000   1.0000   1.0000   1.0000   1.0000   1.0000   1.0000   1.0000
     1.0000   1.0000   1.0000   1.0000   1.0000   1.0000

     highest occupied level (ev):    -5.9052

!    total energy              =    -235.23644296 Ry

     total all-electron energy =      -928.405558 Ry
     estimated scf accuracy    <       0.00000096 Ry

     The total energy is the sum of the following terms:
     one-electron contribution =    -905.41004783 Ry
     hartree contribution      =     461.06556415 Ry
     xc contribution           =     -64.73885535 Ry
     ewald contribution        =     347.89195912 Ry
     scf correction            =      -0.00214010 Ry
     one-center paw contrib.   =     -74.04292295 Ry
      -> PAW hartree energy AE =      10.02289483 Ry
      -> PAW hartree energy PS =     -10.01380917 Ry
      -> PAW xc energy AE      =     -10.80426488 Ry
      -> PAW xc energy PS      =       4.62476730 Ry
      -> total E_H with PAW    =     461.07464981 Ry
      -> total E_XC with PAW   =     -70.91835294 Ry

     iteration #  8     ecut=    60.00 Ry     beta= 0.70
     Davidson diagonalization with overlap
     ethr =  1.60E-09,  avg # of iterations =  5.0

     negative rho (up, down):  3.501E-04 0.000E+00

     total cpu time spent up to now is       25.2 secs

          k = 0.0000 0.0000 0.0000     band energies (ev):

   -20.9849 -20.9661 -18.3573 -18.3527 -18.2517 -18.2504 -14.8509 -14.8470
   -14.7911 -14.7840 -13.0084 -13.0019 -11.4554 -11.4501 -10.5629 -10.5626
   -10.1937 -10.1859 -10.0981 -10.0931  -8.8733  -8.6436  -8.1069  -8.1035
    -8.0038  -7.9998  -6.1133  -6.0481  -5.9484  -5.9057

     occupation numbers 
     1.0000   1.0000   1.0000   1.0000   1.0000   1.0000   1.0000   1.0000
     1.0000   1.0000   1.0000   1.0000   1.0000   1.0000   1.0000   1.0000
     1.0000   1.0000   1.0000   1.0000   1.0000   1.0000   1.0000   1.0000
     1.0000   1.0000   1.0000   1.0000   1.0000   1.0000

     highest occupied level (ev):    -5.9057

!    total energy              =    -235.23644313 Ry

     total all-electron energy =      -928.405558 Ry
     estimated scf accuracy    <       0.00000005 Ry

     The total energy is the sum of the following terms:
     one-electron contribution =    -905.41228541 Ry
     hartree contribution      =     461.06594890 Ry
     xc contribution           =     -64.73891726 Ry
     ewald contribution        =     347.89195912 Ry
     scf correction            =      -0.00025605 Ry
     one-center paw contrib.   =     -74.04289242 Ry
      -> PAW hartree energy AE =      10.02342542 Ry
      -> PAW hartree energy PS =     -10.01433961 Ry
      -> PAW xc energy AE      =     -10.80438858 Ry
      -> PAW xc energy PS      =       4.62489075 Ry
      -> total E_H with PAW    =     461.07503471 Ry
      -> total E_XC with PAW   =     -70.91841510 Ry

     iteration #  9     ecut=    60.00 Ry     beta= 0.70
     Davidson diagonalization with overlap
     ethr =  8.59E-11,  avg # of iterations =  5.0

     negative rho (up, down):  3.501E-04 0.000E+00

     total cpu time spent up to now is       26.5 secs

          k = 0.0000 0.0000 0.0000     band energies (ev):

   -20.9848 -20.9660 -18.3572 -18.3525 -18.2517 -18.2503 -14.8509 -14.8470
   -14.7911 -14.7839 -13.0083 -13.0017 -11.4554 -11.4500 -10.5629 -10.5626
   -10.1935 -10.1856 -10.0981 -10.0930  -8.8733  -8.6435  -8.1068  -8.1034
    -8.0037  -7.9997  -6.1133  -6.0480  -5.9484  -5.9057

     occupation numbers 
     1.0000   1.0000   1.0000   1.0000   1.0000   1.0000   1.0000   1.0000
     1.0000   1.0000   1.0000   1.0000   1.0000   1.0000   1.0000   1.0000
     1.0000   1.0000   1.0000   1.0000   1.0000   1.0000   1.0000   1.0000
     1.0000   1.0000   1.0000   1.0000   1.0000   1.0000

     highest occupied level (ev):    -5.9057

!    total energy              =    -235.23644314 Ry

     total all-electron energy =      -928.405558 Ry
     estimated scf accuracy    <       0.00000002 Ry

     The total energy is the sum of the following terms:
     one-electron contribution =    -905.41199101 Ry
     hartree contribution      =     461.06585195 Ry
     xc contribution           =     -64.73893108 Ry
     ewald contribution        =     347.89195912 Ry
     scf correction            =      -0.00045254 Ry
     one-center paw contrib.   =     -74.04287958 Ry
      -> PAW hartree energy AE =      10.02371484 Ry
      -> PAW hartree energy PS =     -10.01462897 Ry
      -> PAW xc energy AE      =     -10.80445583 Ry
      -> PAW xc energy PS      =       4.62495790 Ry
      -> total E_H with PAW    =     461.07493783 Ry
      -> total E_XC with PAW   =     -70.91842901 Ry

     iteration # 10     ecut=    60.00 Ry     beta= 0.70
     Davidson diagonalization with overlap
     ethr =  3.26E-11,  avg # of iterations =  5.0

     negative rho (up, down):  3.501E-04 0.000E+00

     total cpu time spent up to now is       27.6 secs

     End of self-consistent calculation

          k = 0.0000 0.0000 0.0000 (297901 PWs)   bands (ev):

   -20.9848 -20.9660 -18.3573 -18.3526 -18.2518 -18.2504 -14.8509 -14.8470
   -14.7911 -14.7839 -13.0083 -13.0017 -11.4554 -11.4500 -10.5629 -10.5626
   -10.1935 -10.1856 -10.0981 -10.0930  -8.8733  -8.6436  -8.1068  -8.1034
    -8.0038  -7.9997  -6.1133  -6.0480  -5.9484  -5.9057

     occupation numbers 
     1.0000   1.0000   1.0000   1.0000   1.0000   1.0000   1.0000   1.0000
     1.0000   1.0000   1.0000   1.0000   1.0000   1.0000   1.0000   1.0000
     1.0000   1.0000   1.0000   1.0000   1.0000   1.0000   1.0000   1.0000
     1.0000   1.0000   1.0000   1.0000   1.0000   1.0000

     highest occupied level (ev):    -5.9057

!    total energy              =    -235.23644315 Ry

     total all-electron energy =      -928.405558 Ry
     estimated scf accuracy    <          1.6E-09 Ry

     The total energy is the sum of the following terms:
     one-electron contribution =    -905.41217952 Ry
     hartree contribution      =     461.06557738 Ry
     xc contribution           =     -64.73891687 Ry
     ewald contribution        =     347.89195912 Ry
     one-center paw contrib.   =     -74.04288325 Ry
      -> PAW hartree energy AE =      10.02365433 Ry
      -> PAW hartree energy PS =     -10.01456859 Ry
      -> PAW xc energy AE      =     -10.80444044 Ry
      -> PAW xc energy PS      =       4.62494358 Ry
      -> total E_H with PAW    =     461.07466313 Ry
      -> total E_XC with PAW   =     -70.91841373 Ry

     convergence has been achieved in  10 iterations

     Writing output data file ./tmp/ben2_h4.save/
 
     init_run     :     10.46s CPU     12.68s WALL (       1 calls)
     electrons    :     11.34s CPU     13.49s WALL (       1 calls)

     Called by init_run:
     wfcinit      :      0.20s CPU      1.12s WALL (       1 calls)
     wfcinit:atom :      0.00s CPU      0.00s WALL (       1 calls)
     wfcinit:wfcr :      0.20s CPU      1.11s WALL (       1 calls)
     potinit      :      0.45s CPU      0.72s WALL (       1 calls)
     hinit0       :      0.62s CPU      1.31s WALL (       1 calls)

     Called by electrons:
     c_bands      :      3.90s CPU      4.41s WALL (      10 calls)
     sum_band     :      2.54s CPU      3.10s WALL (      10 calls)
     v_of_rho     :      2.52s CPU      2.72s WALL (      11 calls)
     v_h          :      0.23s CPU      0.25s WALL (      11 calls)
     v_xc         :      2.29s CPU      2.46s WALL (      11 calls)
     newd         :      1.49s CPU      2.16s WALL (      11 calls)
     PAW_pot      :      0.21s CPU      0.38s WALL (      11 calls)
     mix_rho      :      0.45s CPU      0.50s WALL (      10 calls)

     Called by c_bands:
     init_us_2    :      0.06s CPU      0.07s WALL (      21 calls)
     cegterg      :      3.82s CPU      4.31s WALL (      10 calls)

     Called by sum_band:
     sum_band:wei :      0.00s CPU      0.00s WALL (      10 calls)
     sum_band:loo :      0.48s CPU      0.49s WALL (      10 calls)
     sum_band:buf :      0.00s CPU      0.00s WALL (      10 calls)
     sum_band:ini :      0.04s CPU      0.04s WALL (      10 calls)
     sum_band:cal :      0.06s CPU      0.06s WALL (      10 calls)
     sum_band:bec :      0.00s CPU      0.00s WALL (      10 calls)
     addusdens    :      1.80s CPU      2.32s WALL (      10 calls)
     addusd:skk   :      0.16s CPU      0.25s WALL (      20 calls)
     addusd:dgemm :      0.90s CPU      1.30s WALL (      20 calls)
     addusd:qvan2 :      0.60s CPU      0.61s WALL (      20 calls)

     Called by *egterg:
     cdiaghg      :      0.08s CPU      1.17s WALL (      52 calls)
     cegterg:over :      0.19s CPU      0.19s WALL (      42 calls)
     cegterg:upda :      0.08s CPU      0.08s WALL (      42 calls)
     cegterg:last :      0.22s CPU      0.23s WALL (      27 calls)
     h_psi        :      3.02s CPU      3.26s WALL (      53 calls)
     s_psi        :      0.27s CPU      0.27s WALL (      53 calls)
     g_psi        :      0.00s CPU      0.00s WALL (      42 calls)

     Called by h_psi:
     h_psi:calbec :      0.29s CPU      0.43s WALL (      53 calls)
     vloc_psi     :      2.41s CPU      2.48s WALL (      53 calls)
     add_vuspsi   :      0.31s CPU      0.33s WALL (      53 calls)

     General routines
     calbec       :      0.35s CPU      0.49s WALL (      63 calls)
     fft          :      2.11s CPU      2.91s WALL (     141 calls)
     ffts         :      0.07s CPU      0.11s WALL (      21 calls)
     fftw         :      2.59s CPU      2.66s WALL (    2408 calls)
     interpolate  :      0.23s CPU      0.27s WALL (      11 calls)
 
     Parallel routines
     fft_scatt_xy :      0.45s CPU      0.46s WALL (    2570 calls)
     fft_scatt_yz :      2.87s CPU      3.02s WALL (    2570 calls)

     PAW routines
     PAW_pot      :      0.21s CPU      0.38s WALL (      11 calls)
 
     PWSCF        :     22.78s CPU     29.20s WALL

 
   This run was terminated on:  11: 0:20  22Dec2021            

=------------------------------------------------------------------------------=
   JOB DONE.
=------------------------------------------------------------------------------=
