
     Program PWSCF v.6.6 starts on 23Dec2021 at  4:18:20 

     This program is part of the open-source Quantum ESPRESSO suite
     for quantum simulation of materials; please cite
         "P. Giannozzi et al., J. Phys.:Condens. Matter 21 395502 (2009);
         "P. Giannozzi et al., J. Phys.:Condens. Matter 29 465901 (2017);
          URL http://www.quantum-espresso.org", 
     in publications or presentations arising from this work. More details at
     http://www.quantum-espresso.org/quote

     Parallel version (MPI & OpenMP), running on     128 processor cores
     Number of MPI processes:               128
     Threads/MPI process:                     1

     MPI processes distributed on     1 nodes
     R & G space division:  proc/nbgrp/npool/nimage =     128
     Fft bands division:     nmany     =       1
     Waiting for input...
     Reading input from standard input

     Current dimensions of program PWSCF are:
     Max number of different atomic species (ntypx) = 10
     Max number of k-points (npk) =  40000
     Max angular momentum in pseudopotentials (lmaxx) =  3
     Message from routine iosys:
     restart disabled: needed files not found
     file C.pbe-n-kjpaw_psl.1.0.0.UPF: wavefunction(s)  2S 2P renormalized
     file H.pbe-kjpaw_psl.1.0.0.UPF: wavefunction(s)  1S renormalized

     Subspace diagonalization in iterative solution of the eigenvalue problem:
     a serial algorithm will be used

 
     Parallelization info
     --------------------
     sticks:   dense  smooth     PW     G-vecs:    dense   smooth      PW
     Min         299     119     29                44165    11165    1391
     Max         300     120     30                44172    11174    1402
     Sum       38393   15329   3833              5653693  1429635  178925
 


     bravais-lattice index     =            0
     lattice parameter (alat)  =      28.3459  a.u.
     unit-cell volume          =   22775.6289 (a.u.)^3
     number of atoms/cell      =           24
     number of atomic types    =            2
     number of electrons       =        60.00
     number of Kohn-Sham states=           30
     kinetic-energy cutoff     =      60.0000  Ry
     charge density cutoff     =     600.0000  Ry
     convergence threshold     =      1.0E-08
     mixing beta               =       0.7000
     number of iterations used =            8  plain     mixing
     Exchange-correlation= SLA PW PBX PBC
                           (   1   4   3   4   0   0   0)

     celldm(1)=  28.345892  celldm(2)=   0.000000  celldm(3)=   0.000000
     celldm(4)=   0.000000  celldm(5)=   0.000000  celldm(6)=   0.000000

     crystal axes: (cart. coord. in units of alat)
               a(1) = (   1.000000   0.000000   0.000000 )  
               a(2) = (   0.000000   1.000000   0.000000 )  
               a(3) = (   0.000000   0.000000   1.000000 )  

     reciprocal axes: (cart. coord. in units 2 pi/alat)
               b(1) = (  1.000000  0.000000  0.000000 )  
               b(2) = (  0.000000  1.000000  0.000000 )  
               b(3) = (  0.000000  0.000000  1.000000 )  


     PseudoPot. # 1 for C  read from file:
     /home/k0151/k015124/src/pseudo/C.pbe-n-kjpaw_psl.1.0.0.UPF
     MD5 check sum: 5f16ad9a65e90284d1d834d4ab3b0f7d
     Pseudo is Projector augmented-wave + core cor, Zval =  4.0
     Generated using "atomic" code by A. Dal Corso v.6.3
     Shape of augmentation charge: PSQ
     Using radial grid of 1073 points,  4 beta functions with: 
                l(1) =   0
                l(2) =   0
                l(3) =   1
                l(4) =   1
     Q(r) pseudized with 0 coefficients 


     PseudoPot. # 2 for H  read from file:
     /home/k0151/k015124/src/pseudo/H.pbe-kjpaw_psl.1.0.0.UPF
     MD5 check sum: d81a744832360e4a8af0b0b5b123bc2a
     Pseudo is Projector augmented-wave, Zval =  1.0
     Generated using "atomic" code by A. Dal Corso v.6.3MaX
     Shape of augmentation charge: PSQ
     Using radial grid of  929 points,  2 beta functions with: 
                l(1) =   0
                l(2) =   0
     Q(r) pseudized with 0 coefficients 


     atomic species   valence    mass     pseudopotential
        C              4.00    12.01100     C ( 1.00)
        H              1.00     1.00800     H ( 1.00)

     No symmetry found


                                    s                        frac. trans.

      isym =  1     identity                                     

 cryst.   s( 1) = (     1          0          0      )
                  (     0          1          0      )
                  (     0          0          1      )

 cart.    s( 1) = (  1.0000000  0.0000000  0.0000000 )
                  (  0.0000000  1.0000000  0.0000000 )
                  (  0.0000000  0.0000000  1.0000000 )


   Cartesian axes

     site n.     atom                  positions (alat units)
         1           C   tau(   1) = (   0.5926667   0.5000000   0.5000000  )
         2           C   tau(   2) = (   0.5466667   0.4200000   0.5000000  )
         3           C   tau(   3) = (   0.4533333   0.4200000   0.5000000  )
         4           C   tau(   4) = (   0.4073333   0.5000000   0.5000000  )
         5           C   tau(   5) = (   0.4533333   0.5800000   0.5000000  )
         6           C   tau(   6) = (   0.5466667   0.5800000   0.5000000  )
         7           H   tau(   7) = (   0.6593333   0.5000000   0.5000000  )
         8           H   tau(   8) = (   0.5800000   0.3620000   0.5000000  )
         9           H   tau(   9) = (   0.4200000   0.3620000   0.5000000  )
        10           H   tau(  10) = (   0.3406667   0.5000000   0.5000000  )
        11           H   tau(  11) = (   0.4200000   0.6380000   0.5000000  )
        12           H   tau(  12) = (   0.5800000   0.6380000   0.5000000  )
        13           C   tau(  13) = (   0.7800000   0.5466667   0.7266667  )
        14           C   tau(  14) = (   0.7800000   0.4533333   0.7266667  )
        15           C   tau(  15) = (   0.7000000   0.4073333   0.7266667  )
        16           C   tau(  16) = (   0.6200000   0.4533333   0.7266667  )
        17           C   tau(  17) = (   0.6200000   0.5466667   0.7266667  )
        18           C   tau(  18) = (   0.7000000   0.5926667   0.7266667  )
        19           H   tau(  19) = (   0.8380000   0.5800000   0.7266667  )
        20           H   tau(  20) = (   0.8380000   0.4200000   0.7266667  )
        21           H   tau(  21) = (   0.7000000   0.3406667   0.7266667  )
        22           H   tau(  22) = (   0.5620000   0.4206667   0.7266667  )
        23           H   tau(  23) = (   0.5620000   0.5800000   0.7266667  )
        24           H   tau(  24) = (   0.7000000   0.6593333   0.7266667  )

   Crystallographic axes

     site n.     atom                  positions (cryst. coord.)
         1           C   tau(   1) = (  0.5926667  0.5000000  0.5000000  )
         2           C   tau(   2) = (  0.5466667  0.4200000  0.5000000  )
         3           C   tau(   3) = (  0.4533333  0.4200000  0.5000000  )
         4           C   tau(   4) = (  0.4073333  0.5000000  0.5000000  )
         5           C   tau(   5) = (  0.4533333  0.5800000  0.5000000  )
         6           C   tau(   6) = (  0.5466667  0.5800000  0.5000000  )
         7           H   tau(   7) = (  0.6593333  0.5000000  0.5000000  )
         8           H   tau(   8) = (  0.5800000  0.3620000  0.5000000  )
         9           H   tau(   9) = (  0.4200000  0.3620000  0.5000000  )
        10           H   tau(  10) = (  0.3406667  0.5000000  0.5000000  )
        11           H   tau(  11) = (  0.4200000  0.6380000  0.5000000  )
        12           H   tau(  12) = (  0.5800000  0.6380000  0.5000000  )
        13           C   tau(  13) = (  0.7800000  0.5466667  0.7266667  )
        14           C   tau(  14) = (  0.7800000  0.4533333  0.7266667  )
        15           C   tau(  15) = (  0.7000000  0.4073333  0.7266667  )
        16           C   tau(  16) = (  0.6200000  0.4533333  0.7266667  )
        17           C   tau(  17) = (  0.6200000  0.5466667  0.7266667  )
        18           C   tau(  18) = (  0.7000000  0.5926667  0.7266667  )
        19           H   tau(  19) = (  0.8380000  0.5800000  0.7266667  )
        20           H   tau(  20) = (  0.8380000  0.4200000  0.7266667  )
        21           H   tau(  21) = (  0.7000000  0.3406667  0.7266667  )
        22           H   tau(  22) = (  0.5620000  0.4206667  0.7266667  )
        23           H   tau(  23) = (  0.5620000  0.5800000  0.7266667  )
        24           H   tau(  24) = (  0.7000000  0.6593333  0.7266667  )

     number of k points=     1
                       cart. coord. in units 2pi/alat
        k(    1) = (   0.0000000   0.0000000   0.0000000), wk =   2.0000000

                       cryst. coord.
        k(    1) = (   0.0000000   0.0000000   0.0000000), wk =   2.0000000

     Dense  grid:  5653693 G-vectors     FFT dimensions: ( 225, 225, 225)

     Smooth grid:  1429635 G-vectors     FFT dimensions: ( 144, 144, 144)

     Dynamical RAM for                 wfc:       0.64 MB

     Dynamical RAM for     wfc (w. buffer):       0.64 MB

     Dynamical RAM for           str. fact:       1.35 MB

     Dynamical RAM for           local pot:       0.00 MB

     Dynamical RAM for          nlocal pot:       2.56 MB

     Dynamical RAM for                qrad:       1.12 MB

     Dynamical RAM for          rho,v,vnew:       4.34 MB

     Dynamical RAM for               rhoin:       1.45 MB

     Dynamical RAM for            rho*nmix:      10.78 MB

     Dynamical RAM for           G-vectors:       2.61 MB

     Dynamical RAM for          h,s,v(r/c):       0.16 MB

     Dynamical RAM for          <psi|beta>:       0.05 MB

     Dynamical RAM for                 psi:       1.28 MB

     Dynamical RAM for                hpsi:       1.28 MB

     Dynamical RAM for                spsi:       1.28 MB

     Dynamical RAM for      wfcinit/wfcrot:       1.30 MB

     Dynamical RAM for           addusdens:      37.07 MB

     Estimated static dynamical RAM per process >      30.73 MB

     Estimated max dynamical RAM per process >      86.27 MB

     Estimated total dynamical RAM >      10.78 GB
     Cannot read rho : file not found

     Initial potential from superposition of free atoms

     starting charge   59.99939, renormalised to   60.00000

     negative rho (up, down):  1.168E-04 0.000E+00
     Message from routine qexsd_readschema :
     xml data file ./tmp/ben2.save/data-file-schema.xml not found
     Cannot read wfcs: file not found
     Starting wfcs are   60 randomized atomic wfcs
     Checking if some PAW data can be deallocated... 
       PAW data deallocated on   62 nodes for type:  1
       PAW data deallocated on   66 nodes for type:  2

     total cpu time spent up to now is       11.6 secs

     Self-consistent Calculation

     iteration #  1     ecut=    60.00 Ry     beta= 0.70
     Davidson diagonalization with overlap
     ethr =  1.00E-05,  avg # of iterations =  7.0

     negative rho (up, down):  2.036E-04 0.000E+00

     total cpu time spent up to now is       12.8 secs

          k = 0.0000 0.0000 0.0000     band energies (ev):

   -26.8631 -26.8391 -24.1734 -24.1706 -24.0080 -23.9977 -20.5536 -20.5287
   -20.4518 -20.4408 -18.3901 -18.3783 -16.8568 -16.8524 -16.6324 -16.6194
   -15.8294 -15.8262 -15.6965 -15.6829 -13.9063 -13.8887 -13.7878 -13.7859
   -13.5383 -13.3352 -10.8806 -10.8289 -10.6464 -10.5945

     occupation numbers 
     1.0000   1.0000   1.0000   1.0000   1.0000   1.0000   1.0000   1.0000
     1.0000   1.0000   1.0000   1.0000   1.0000   1.0000   1.0000   1.0000
     1.0000   1.0000   1.0000   1.0000   1.0000   1.0000   1.0000   1.0000
     1.0000   1.0000   1.0000   1.0000   1.0000   1.0000

     highest occupied level (ev):   -10.5945

!    total energy              =    -234.41151596 Ry

     total all-electron energy =      -927.580631 Ry
     estimated scf accuracy    <       3.39541810 Ry

     The total energy is the sum of the following terms:
     one-electron contribution =    -780.51176362 Ry
     hartree contribution      =     396.99951469 Ry
     xc contribution           =     -65.27583115 Ry
     ewald contribution        =     276.83842579 Ry
     scf correction            =      11.82628589 Ry
     one-center paw contrib.   =     -74.28814755 Ry
      -> PAW hartree energy AE =       9.23762263 Ry
      -> PAW hartree energy PS =      -9.22665685 Ry
      -> PAW xc energy AE      =     -10.64388192 Ry
      -> PAW xc energy PS      =       4.44196185 Ry
      -> total E_H with PAW    =     397.01048047 Ry
      -> total E_XC with PAW   =     -71.47775121 Ry

     iteration #  2     ecut=    60.00 Ry     beta= 0.70
     Davidson diagonalization with overlap
     ethr =  5.66E-03,  avg # of iterations =  2.0

     negative rho (up, down):  2.403E-04 0.000E+00

     total cpu time spent up to now is       13.9 secs

          k = 0.0000 0.0000 0.0000     band energies (ev):

   -18.9453 -18.9018 -16.7094 -16.6602 -16.6534 -16.5860 -13.5995 -13.5513
   -13.5255 -13.5020 -11.6986 -11.6953 -10.8049 -10.8017  -8.6997  -8.6503
    -8.6481  -8.6234  -8.6046  -8.5738  -7.1873  -6.8808  -6.6463  -6.6405
    -6.5433  -6.5379  -4.5053  -4.4954  -4.2710  -4.0824

     occupation numbers 
     1.0000   1.0000   1.0000   1.0000   1.0000   1.0000   1.0000   1.0000
     1.0000   1.0000   1.0000   1.0000   1.0000   1.0000   1.0000   1.0000
     1.0000   1.0000   1.0000   1.0000   1.0000   1.0000   1.0000   1.0000
     1.0000   1.0000   1.0000   1.0000   1.0000   1.0000

     highest occupied level (ev):    -4.0824

!    total energy              =    -235.14289614 Ry

     total all-electron energy =      -928.312011 Ry
     estimated scf accuracy    <       0.49574083 Ry

     The total energy is the sum of the following terms:
     one-electron contribution =    -756.54358635 Ry
     hartree contribution      =     389.16995529 Ry
     xc contribution           =     -64.53975745 Ry
     ewald contribution        =     276.83842579 Ry
     scf correction            =      -5.94420308 Ry
     one-center paw contrib.   =     -74.12373035 Ry
      -> PAW hartree energy AE =       9.31829131 Ry
      -> PAW hartree energy PS =      -9.30876276 Ry
      -> PAW xc energy AE      =     -10.64511077 Ry
      -> PAW xc energy PS      =       4.45865778 Ry
      -> total E_H with PAW    =     389.17948385 Ry
      -> total E_XC with PAW   =     -70.72621044 Ry

     iteration #  3     ecut=    60.00 Ry     beta= 0.70
     Davidson diagonalization with overlap
     ethr =  8.26E-04,  avg # of iterations =  2.0

     negative rho (up, down):  2.234E-04 0.000E+00

     total cpu time spent up to now is       14.6 secs

          k = 0.0000 0.0000 0.0000     band energies (ev):

   -21.2606 -21.2222 -18.5539 -18.5462 -18.4429 -18.4377 -15.0121 -14.9723
   -14.9343 -14.9255 -13.1974 -13.1886 -11.5544 -11.5518 -10.7453 -10.7415
   -10.4004 -10.3983 -10.3086 -10.3045  -9.0795  -8.7878  -8.2792  -8.2774
    -8.1750  -8.1734  -6.3148  -6.2550  -6.0528  -5.9499

     occupation numbers 
     1.0000   1.0000   1.0000   1.0000   1.0000   1.0000   1.0000   1.0000
     1.0000   1.0000   1.0000   1.0000   1.0000   1.0000   1.0000   1.0000
     1.0000   1.0000   1.0000   1.0000   1.0000   1.0000   1.0000   1.0000
     1.0000   1.0000   1.0000   1.0000   1.0000   1.0000

     highest occupied level (ev):    -5.9499

!    total energy              =    -235.23312736 Ry

     total all-electron energy =      -928.402242 Ry
     estimated scf accuracy    <       0.01349077 Ry

     The total energy is the sum of the following terms:
     one-electron contribution =    -764.44121227 Ry
     hartree contribution      =     390.45181741 Ry
     xc contribution           =     -64.72787823 Ry
     ewald contribution        =     276.83842579 Ry
     scf correction            =       0.70176278 Ry
     one-center paw contrib.   =     -74.05604283 Ry
      -> PAW hartree energy AE =       9.86335706 Ry
      -> PAW hartree energy PS =      -9.85420928 Ry
      -> PAW xc energy AE      =     -10.76815731 Ry
      -> PAW xc energy PS      =       4.58752190 Ry
      -> total E_H with PAW    =     390.46096519 Ry
      -> total E_XC with PAW   =     -70.90851364 Ry

     iteration #  4     ecut=    60.00 Ry     beta= 0.70
     Davidson diagonalization with overlap
     ethr =  2.25E-05,  avg # of iterations =  2.0

     negative rho (up, down):  2.264E-04 0.000E+00

     total cpu time spent up to now is       15.3 secs

          k = 0.0000 0.0000 0.0000     band energies (ev):

   -20.9149 -20.8765 -18.2722 -18.2635 -18.1602 -18.1418 -14.7625 -14.7223
   -14.6859 -14.6756 -12.8966 -12.8886 -11.3217 -11.3187 -10.4778 -10.4756
   -10.0926 -10.0759  -9.9930  -9.9766  -8.8228  -8.5339  -7.9991  -7.9947
    -7.8937  -7.8901  -6.0769  -6.0302  -5.8224  -5.7037

     occupation numbers 
     1.0000   1.0000   1.0000   1.0000   1.0000   1.0000   1.0000   1.0000
     1.0000   1.0000   1.0000   1.0000   1.0000   1.0000   1.0000   1.0000
     1.0000   1.0000   1.0000   1.0000   1.0000   1.0000   1.0000   1.0000
     1.0000   1.0000   1.0000   1.0000   1.0000   1.0000

     highest occupied level (ev):    -5.7037

!    total energy              =    -235.23478315 Ry

     total all-electron energy =      -928.403898 Ry
     estimated scf accuracy    <       0.00050859 Ry

     The total energy is the sum of the following terms:
     one-electron contribution =    -764.20316280 Ry
     hartree contribution      =     390.72598754 Ry
     xc contribution           =     -64.75435214 Ry
     ewald contribution        =     276.83842579 Ry
     scf correction            =       0.20447034 Ry
     one-center paw contrib.   =     -74.04615188 Ry
      -> PAW hartree energy AE =       9.98650748 Ry
      -> PAW hartree energy PS =      -9.97740171 Ry
      -> PAW xc energy AE      =     -10.79610553 Ry
      -> PAW xc energy PS      =       4.61629561 Ry
      -> total E_H with PAW    =     390.73509331 Ry
      -> total E_XC with PAW   =     -70.93416206 Ry

     iteration #  5     ecut=    60.00 Ry     beta= 0.70
     Davidson diagonalization with overlap
     ethr =  8.48E-07,  avg # of iterations =  3.0

     negative rho (up, down):  2.273E-04 0.000E+00

     total cpu time spent up to now is       16.1 secs

          k = 0.0000 0.0000 0.0000     band energies (ev):

   -20.8339 -20.7950 -18.1999 -18.1947 -18.0955 -18.0787 -14.7083 -14.6678
   -14.6312 -14.6213 -12.8447 -12.8370 -11.2904 -11.2879 -10.4035 -10.4005
   -10.0309 -10.0167  -9.9379  -9.9229  -8.7570  -8.4660  -7.9435  -7.9384
    -7.8376  -7.8344  -6.0144  -5.9656  -5.7595  -5.6419

     occupation numbers 
     1.0000   1.0000   1.0000   1.0000   1.0000   1.0000   1.0000   1.0000
     1.0000   1.0000   1.0000   1.0000   1.0000   1.0000   1.0000   1.0000
     1.0000   1.0000   1.0000   1.0000   1.0000   1.0000   1.0000   1.0000
     1.0000   1.0000   1.0000   1.0000   1.0000   1.0000

     highest occupied level (ev):    -5.6419

!    total energy              =    -235.23496143 Ry

     total all-electron energy =      -928.404076 Ry
     estimated scf accuracy    <       0.00002335 Ry

     The total energy is the sum of the following terms:
     one-electron contribution =    -763.97656894 Ry
     hartree contribution      =     390.70054536 Ry
     xc contribution           =     -64.75002019 Ry
     ewald contribution        =     276.83842579 Ry
     scf correction            =      -0.00384395 Ry
     one-center paw contrib.   =     -74.04349951 Ry
      -> PAW hartree energy AE =      10.01830054 Ry
      -> PAW hartree energy PS =     -10.00920752 Ry
      -> PAW xc energy AE      =     -10.80332720 Ry
      -> PAW xc energy PS      =       4.62373295 Ry
      -> total E_H with PAW    =     390.70963839 Ry
      -> total E_XC with PAW   =     -70.92961444 Ry

     iteration #  6     ecut=    60.00 Ry     beta= 0.70
     Davidson diagonalization with overlap
     ethr =  3.89E-08,  avg # of iterations =  5.0

     negative rho (up, down):  2.270E-04 0.000E+00

     total cpu time spent up to now is       16.9 secs

          k = 0.0000 0.0000 0.0000     band energies (ev):

   -20.8442 -20.8052 -18.2057 -18.2014 -18.1016 -18.0845 -14.7116 -14.6710
   -14.6343 -14.6245 -12.8514 -12.8436 -11.2917 -11.2896 -10.4086 -10.4049
   -10.0390 -10.0256  -9.9465  -9.9309  -8.7632  -8.4715  -7.9494  -7.9435
    -7.8429  -7.8402  -6.0192  -5.9704  -5.7643  -5.6474

     occupation numbers 
     1.0000   1.0000   1.0000   1.0000   1.0000   1.0000   1.0000   1.0000
     1.0000   1.0000   1.0000   1.0000   1.0000   1.0000   1.0000   1.0000
     1.0000   1.0000   1.0000   1.0000   1.0000   1.0000   1.0000   1.0000
     1.0000   1.0000   1.0000   1.0000   1.0000   1.0000

     highest occupied level (ev):    -5.6474

!    total energy              =    -235.23496930 Ry

     total all-electron energy =      -928.404084 Ry
     estimated scf accuracy    <       0.00000167 Ry

     The total energy is the sum of the following terms:
     one-electron contribution =    -763.98606161 Ry
     hartree contribution      =     390.70177116 Ry
     xc contribution           =     -64.74872328 Ry
     ewald contribution        =     276.83842579 Ry
     scf correction            =       0.00285590 Ry
     one-center paw contrib.   =     -74.04323725 Ry
      -> PAW hartree energy AE =      10.02361782 Ry
      -> PAW hartree energy PS =     -10.01452494 Ry
      -> PAW xc energy AE      =     -10.80455185 Ry
      -> PAW xc energy PS      =       4.62496993 Ry
      -> total E_H with PAW    =     390.71086404 Ry
      -> total E_XC with PAW   =     -70.92830521 Ry

     iteration #  7     ecut=    60.00 Ry     beta= 0.70
     Davidson diagonalization with overlap
     ethr =  2.79E-09,  avg # of iterations =  5.0

     negative rho (up, down):  2.269E-04 0.000E+00

     total cpu time spent up to now is       17.7 secs

          k = 0.0000 0.0000 0.0000     band energies (ev):

   -20.8426 -20.8038 -18.2055 -18.2007 -18.1007 -18.0842 -14.7118 -14.6713
   -14.6347 -14.6246 -12.8513 -12.8435 -11.2931 -11.2908 -10.4077 -10.4047
   -10.0390 -10.0251  -9.9458  -9.9308  -8.7618  -8.4707  -7.9493  -7.9439
    -7.8431  -7.8400  -6.0185  -5.9696  -5.7634  -5.6462

     occupation numbers 
     1.0000   1.0000   1.0000   1.0000   1.0000   1.0000   1.0000   1.0000
     1.0000   1.0000   1.0000   1.0000   1.0000   1.0000   1.0000   1.0000
     1.0000   1.0000   1.0000   1.0000   1.0000   1.0000   1.0000   1.0000
     1.0000   1.0000   1.0000   1.0000   1.0000   1.0000

     highest occupied level (ev):    -5.6462

!    total energy              =    -235.23496990 Ry

     total all-electron energy =      -928.404085 Ry
     estimated scf accuracy    <       0.00000110 Ry

     The total energy is the sum of the following terms:
     one-electron contribution =    -763.97657138 Ry
     hartree contribution      =     390.70006007 Ry
     xc contribution           =     -64.74860308 Ry
     ewald contribution        =     276.83842579 Ry
     scf correction            =      -0.00513721 Ry
     one-center paw contrib.   =     -74.04314411 Ry
      -> PAW hartree energy AE =      10.02396439 Ry
      -> PAW hartree energy PS =     -10.01487250 Ry
      -> PAW xc energy AE      =     -10.80462242 Ry
      -> PAW xc energy PS      =       4.62505140 Ry
      -> total E_H with PAW    =     390.70915197 Ry
      -> total E_XC with PAW   =     -70.92817409 Ry

     iteration #  8     ecut=    60.00 Ry     beta= 0.70
     Davidson diagonalization with overlap
     ethr =  1.83E-09,  avg # of iterations =  4.0

     negative rho (up, down):  2.269E-04 0.000E+00

     total cpu time spent up to now is       18.4 secs

          k = 0.0000 0.0000 0.0000     band energies (ev):

   -20.8430 -20.8041 -18.2058 -18.2012 -18.1012 -18.0846 -14.7122 -14.6717
   -14.6350 -14.6251 -12.8516 -12.8438 -11.2934 -11.2912 -10.4083 -10.4051
   -10.0392 -10.0255  -9.9462  -9.9311  -8.7623  -8.4709  -7.9497  -7.9442
    -7.8435  -7.8405  -6.0189  -5.9700  -5.7638  -5.6469

     occupation numbers 
     1.0000   1.0000   1.0000   1.0000   1.0000   1.0000   1.0000   1.0000
     1.0000   1.0000   1.0000   1.0000   1.0000   1.0000   1.0000   1.0000
     1.0000   1.0000   1.0000   1.0000   1.0000   1.0000   1.0000   1.0000
     1.0000   1.0000   1.0000   1.0000   1.0000   1.0000

     highest occupied level (ev):    -5.6469

!    total energy              =    -235.23497007 Ry

     total all-electron energy =      -928.404085 Ry
     estimated scf accuracy    <       0.00000005 Ry

     The total energy is the sum of the following terms:
     one-electron contribution =    -763.97896802 Ry
     hartree contribution      =     390.69908620 Ry
     xc contribution           =     -64.74864381 Ry
     ewald contribution        =     276.83842579 Ry
     scf correction            =      -0.00179082 Ry
     one-center paw contrib.   =     -74.04307942 Ry
      -> PAW hartree energy AE =      10.02435335 Ry
      -> PAW hartree energy PS =     -10.01526172 Ry
      -> PAW xc energy AE      =     -10.80470937 Ry
      -> PAW xc energy PS      =       4.62514181 Ry
      -> total E_H with PAW    =     390.70817782 Ry
      -> total E_XC with PAW   =     -70.92821138 Ry

     iteration #  9     ecut=    60.00 Ry     beta= 0.70
     Davidson diagonalization with overlap
     ethr =  8.46E-11,  avg # of iterations =  5.0

     negative rho (up, down):  2.269E-04 0.000E+00

     total cpu time spent up to now is       19.2 secs

          k = 0.0000 0.0000 0.0000     band energies (ev):

   -20.8433 -20.8044 -18.2060 -18.2016 -18.1015 -18.0848 -14.7125 -14.6719
   -14.6352 -14.6253 -12.8516 -12.8439 -11.2934 -11.2912 -10.4088 -10.4054
   -10.0393 -10.0257  -9.9464  -9.9311  -8.7627  -8.4712  -7.9500  -7.9444
    -7.8436  -7.8407  -6.0192  -5.9703  -5.7641  -5.6472

     occupation numbers 
     1.0000   1.0000   1.0000   1.0000   1.0000   1.0000   1.0000   1.0000
     1.0000   1.0000   1.0000   1.0000   1.0000   1.0000   1.0000   1.0000
     1.0000   1.0000   1.0000   1.0000   1.0000   1.0000   1.0000   1.0000
     1.0000   1.0000   1.0000   1.0000   1.0000   1.0000

     highest occupied level (ev):    -5.6472

!    total energy              =    -235.23497011 Ry

     total all-electron energy =      -928.404085 Ry
     estimated scf accuracy    <       0.00000004 Ry

     The total energy is the sum of the following terms:
     one-electron contribution =    -763.98129879 Ry
     hartree contribution      =     390.69901395 Ry
     xc contribution           =     -64.74862817 Ry
     ewald contribution        =     276.83842579 Ry
     scf correction            =       0.00059890 Ry
     one-center paw contrib.   =     -74.04308179 Ry
      -> PAW hartree energy AE =      10.02450072 Ry
      -> PAW hartree energy PS =     -10.01540898 Ry
      -> PAW xc energy AE      =     -10.80474444 Ry
      -> PAW xc energy PS      =       4.62517584 Ry
      -> total E_H with PAW    =     390.70810569 Ry
      -> total E_XC with PAW   =     -70.92819677 Ry

     iteration # 10     ecut=    60.00 Ry     beta= 0.70
     Davidson diagonalization with overlap
     ethr =  6.52E-11,  avg # of iterations =  3.0

     negative rho (up, down):  2.268E-04 0.000E+00

     total cpu time spent up to now is       19.9 secs

          k = 0.0000 0.0000 0.0000     band energies (ev):

   -20.8434 -20.8044 -18.2060 -18.2016 -18.1015 -18.0848 -14.7125 -14.6719
   -14.6352 -14.6253 -12.8517 -12.8439 -11.2934 -11.2912 -10.4088 -10.4055
   -10.0393 -10.0257  -9.9464  -9.9311  -8.7627  -8.4712  -7.9500  -7.9444
    -7.8436  -7.8407  -6.0192  -5.9703  -5.7641  -5.6472

     occupation numbers 
     1.0000   1.0000   1.0000   1.0000   1.0000   1.0000   1.0000   1.0000
     1.0000   1.0000   1.0000   1.0000   1.0000   1.0000   1.0000   1.0000
     1.0000   1.0000   1.0000   1.0000   1.0000   1.0000   1.0000   1.0000
     1.0000   1.0000   1.0000   1.0000   1.0000   1.0000

     highest occupied level (ev):    -5.6472

!    total energy              =    -235.23497010 Ry

     total all-electron energy =      -928.404085 Ry
     estimated scf accuracy    <       0.00000001 Ry

     The total energy is the sum of the following terms:
     one-electron contribution =    -763.98142890 Ry
     hartree contribution      =     390.69920668 Ry
     xc contribution           =     -64.74861866 Ry
     ewald contribution        =     276.83842579 Ry
     scf correction            =       0.00053775 Ry
     one-center paw contrib.   =     -74.04309276 Ry
      -> PAW hartree energy AE =      10.02460165 Ry
      -> PAW hartree energy PS =     -10.01550976 Ry
      -> PAW xc energy AE      =     -10.80476914 Ry
      -> PAW xc energy PS      =       4.62519908 Ry
      -> total E_H with PAW    =     390.70829857 Ry
      -> total E_XC with PAW   =     -70.92818873 Ry

     iteration # 11     ecut=    60.00 Ry     beta= 0.70
     Davidson diagonalization with overlap
     ethr =  2.35E-11,  avg # of iterations =  5.0

     negative rho (up, down):  2.268E-04 0.000E+00

     total cpu time spent up to now is       20.6 secs

     End of self-consistent calculation

          k = 0.0000 0.0000 0.0000 (178925 PWs)   bands (ev):

   -20.8433 -20.8044 -18.2060 -18.2015 -18.1015 -18.0848 -14.7124 -14.6718
   -14.6352 -14.6253 -12.8516 -12.8439 -11.2934 -11.2912 -10.4087 -10.4054
   -10.0393 -10.0257  -9.9463  -9.9312  -8.7626  -8.4712  -7.9499  -7.9444
    -7.8436  -7.8406  -6.0192  -5.9703  -5.7641  -5.6471

     occupation numbers 
     1.0000   1.0000   1.0000   1.0000   1.0000   1.0000   1.0000   1.0000
     1.0000   1.0000   1.0000   1.0000   1.0000   1.0000   1.0000   1.0000
     1.0000   1.0000   1.0000   1.0000   1.0000   1.0000   1.0000   1.0000
     1.0000   1.0000   1.0000   1.0000   1.0000   1.0000

     highest occupied level (ev):    -5.6471

!    total energy              =    -235.23497011 Ry

     total all-electron energy =      -928.404085 Ry
     estimated scf accuracy    <          9.9E-10 Ry

     The total energy is the sum of the following terms:
     one-electron contribution =    -763.98093620 Ry
     hartree contribution      =     390.69926433 Ry
     xc contribution           =     -64.74863061 Ry
     ewald contribution        =     276.83842579 Ry
     one-center paw contrib.   =     -74.04309341 Ry
      -> PAW hartree energy AE =      10.02450687 Ry
      -> PAW hartree energy PS =     -10.01541505 Ry
      -> PAW xc energy AE      =     -10.80474669 Ry
      -> PAW xc energy PS      =       4.62517707 Ry
      -> total E_H with PAW    =     390.70835615 Ry
      -> total E_XC with PAW   =     -70.92820024 Ry

     convergence has been achieved in  11 iterations

     Writing output data file ./tmp/ben2.save/
 
     init_run     :      5.01s CPU      9.62s WALL (       1 calls)
     electrons    :      7.93s CPU      9.47s WALL (       1 calls)

     Called by init_run:
     wfcinit      :      0.16s CPU      1.56s WALL (       1 calls)
     wfcinit:atom :      0.00s CPU      0.00s WALL (       1 calls)
     wfcinit:wfcr :      0.16s CPU      1.55s WALL (       1 calls)
     potinit      :      0.20s CPU      0.98s WALL (       1 calls)
     hinit0       :      0.17s CPU      2.29s WALL (       1 calls)

     Called by electrons:
     c_bands      :      3.29s CPU      3.65s WALL (      11 calls)
     sum_band     :      1.60s CPU      1.96s WALL (      11 calls)
     v_of_rho     :      1.54s CPU      1.80s WALL (      12 calls)
     v_h          :      0.13s CPU      0.15s WALL (      12 calls)
     v_xc         :      1.40s CPU      1.65s WALL (      12 calls)
     newd         :      0.80s CPU      1.34s WALL (      12 calls)
     PAW_pot      :      0.23s CPU      0.81s WALL (      12 calls)
     mix_rho      :      0.28s CPU      0.36s WALL (      11 calls)

     Called by c_bands:
     init_us_2    :      0.04s CPU      0.05s WALL (      23 calls)
     cegterg      :      3.24s CPU      3.59s WALL (      11 calls)

     Called by sum_band:
     sum_band:wei :      0.00s CPU      0.00s WALL (      11 calls)
     sum_band:loo :      0.43s CPU      0.45s WALL (      11 calls)
     sum_band:buf :      0.00s CPU      0.00s WALL (      11 calls)
     sum_band:ini :      0.02s CPU      0.03s WALL (      11 calls)
     sum_band:cal :      0.04s CPU      0.05s WALL (      11 calls)
     sum_band:bec :      0.00s CPU      0.00s WALL (      11 calls)
     addusdens    :      0.99s CPU      1.33s WALL (      11 calls)
     addusd:skk   :      0.12s CPU      0.15s WALL (      22 calls)
     addusd:dgemm :      0.56s CPU      0.84s WALL (      22 calls)
     addusd:qvan2 :      0.23s CPU      0.24s WALL (      22 calls)

     Called by *egterg:
     cdiaghg      :      0.07s CPU      1.55s WALL (      54 calls)
     cegterg:over :      0.11s CPU      0.12s WALL (      43 calls)
     cegterg:upda :      0.05s CPU      0.05s WALL (      43 calls)
     cegterg:last :      0.12s CPU      0.13s WALL (      30 calls)
     h_psi        :      2.74s CPU      2.96s WALL (      55 calls)
     s_psi        :      0.19s CPU      0.20s WALL (      55 calls)
     g_psi        :      0.00s CPU      0.00s WALL (      43 calls)

     Called by h_psi:
     h_psi:calbec :      0.19s CPU      0.33s WALL (      55 calls)
     vloc_psi     :      2.33s CPU      2.39s WALL (      55 calls)
     add_vuspsi   :      0.21s CPU      0.22s WALL (      55 calls)

     General routines
     calbec       :      0.24s CPU      0.38s WALL (      66 calls)
     fft          :      1.23s CPU      3.55s WALL (     154 calls)
     ffts         :      0.07s CPU      0.10s WALL (      23 calls)
     fftw         :      2.51s CPU      2.57s WALL (    2566 calls)
     interpolate  :      0.15s CPU      0.19s WALL (      12 calls)
 
     Parallel routines
     fft_scatt_xy :      0.29s CPU      0.30s WALL (    2743 calls)
     fft_scatt_yz :      2.47s CPU      3.08s WALL (    2743 calls)

     PAW routines
     PAW_pot      :      0.23s CPU      0.81s WALL (      12 calls)
 
     PWSCF        :     13.86s CPU     21.76s WALL

 
   This run was terminated on:   4:18:42  23Dec2021            

=------------------------------------------------------------------------------=
   JOB DONE.
=------------------------------------------------------------------------------=
