
     Program PWSCF v.6.6 starts on 23Dec2021 at  5:59:10 

     This program is part of the open-source Quantum ESPRESSO suite
     for quantum simulation of materials; please cite
         "P. Giannozzi et al., J. Phys.:Condens. Matter 21 395502 (2009);
         "P. Giannozzi et al., J. Phys.:Condens. Matter 29 465901 (2017);
          URL http://www.quantum-espresso.org", 
     in publications or presentations arising from this work. More details at
     http://www.quantum-espresso.org/quote

     Parallel version (MPI & OpenMP), running on     128 processor cores
     Number of MPI processes:               128
     Threads/MPI process:                     1

     MPI processes distributed on     1 nodes
     R & G space division:  proc/nbgrp/npool/nimage =     128
     Fft bands division:     nmany     =       1
     Waiting for input...
     Reading input from standard input

     Current dimensions of program PWSCF are:
     Max number of different atomic species (ntypx) = 10
     Max number of k-points (npk) =  40000
     Max angular momentum in pseudopotentials (lmaxx) =  3
     Message from routine iosys:
     restart disabled: needed files not found
     file C.pbe-n-kjpaw_psl.1.0.0.UPF: wavefunction(s)  2S 2P renormalized
     file H.pbe-kjpaw_psl.1.0.0.UPF: wavefunction(s)  1S renormalized

     Subspace diagonalization in iterative solution of the eigenvalue problem:
     a serial algorithm will be used

 
     Parallelization info
     --------------------
     sticks:   dense  smooth     PW     G-vecs:    dense   smooth      PW
     Min         299     119     29                44165    11165    1391
     Max         300     120     30                44172    11174    1402
     Sum       38393   15329   3833              5653693  1429635  178925
 


     bravais-lattice index     =            0
     lattice parameter (alat)  =      28.3459  a.u.
     unit-cell volume          =   22775.6289 (a.u.)^3
     number of atoms/cell      =           24
     number of atomic types    =            2
     number of electrons       =        60.00
     number of Kohn-Sham states=           30
     kinetic-energy cutoff     =      60.0000  Ry
     charge density cutoff     =     600.0000  Ry
     convergence threshold     =      1.0E-08
     mixing beta               =       0.7000
     number of iterations used =            8  plain     mixing
     Exchange-correlation= SLA PW PBX PBC
                           (   1   4   3   4   0   0   0)

     celldm(1)=  28.345892  celldm(2)=   0.000000  celldm(3)=   0.000000
     celldm(4)=   0.000000  celldm(5)=   0.000000  celldm(6)=   0.000000

     crystal axes: (cart. coord. in units of alat)
               a(1) = (   1.000000   0.000000   0.000000 )  
               a(2) = (   0.000000   1.000000   0.000000 )  
               a(3) = (   0.000000   0.000000   1.000000 )  

     reciprocal axes: (cart. coord. in units 2 pi/alat)
               b(1) = (  1.000000  0.000000  0.000000 )  
               b(2) = (  0.000000  1.000000  0.000000 )  
               b(3) = (  0.000000  0.000000  1.000000 )  


     PseudoPot. # 1 for C  read from file:
     /home/k0151/k015124/src/pseudo/C.pbe-n-kjpaw_psl.1.0.0.UPF
     MD5 check sum: 5f16ad9a65e90284d1d834d4ab3b0f7d
     Pseudo is Projector augmented-wave + core cor, Zval =  4.0
     Generated using "atomic" code by A. Dal Corso v.6.3
     Shape of augmentation charge: PSQ
     Using radial grid of 1073 points,  4 beta functions with: 
                l(1) =   0
                l(2) =   0
                l(3) =   1
                l(4) =   1
     Q(r) pseudized with 0 coefficients 


     PseudoPot. # 2 for H  read from file:
     /home/k0151/k015124/src/pseudo/H.pbe-kjpaw_psl.1.0.0.UPF
     MD5 check sum: d81a744832360e4a8af0b0b5b123bc2a
     Pseudo is Projector augmented-wave, Zval =  1.0
     Generated using "atomic" code by A. Dal Corso v.6.3MaX
     Shape of augmentation charge: PSQ
     Using radial grid of  929 points,  2 beta functions with: 
                l(1) =   0
                l(2) =   0
     Q(r) pseudized with 0 coefficients 


     atomic species   valence    mass     pseudopotential
        C              4.00    12.01100     C ( 1.00)
        H              1.00     1.00800     H ( 1.00)

     No symmetry found


                                    s                        frac. trans.

      isym =  1     identity                                     

 cryst.   s( 1) = (     1          0          0      )
                  (     0          1          0      )
                  (     0          0          1      )

 cart.    s( 1) = (  1.0000000  0.0000000  0.0000000 )
                  (  0.0000000  1.0000000  0.0000000 )
                  (  0.0000000  0.0000000  1.0000000 )


   Cartesian axes

     site n.     atom                  positions (alat units)
         1           C   tau(   1) = (   0.5926667   0.5000000   0.5000000  )
         2           C   tau(   2) = (   0.5466667   0.4200000   0.5000000  )
         3           C   tau(   3) = (   0.4533333   0.4200000   0.5000000  )
         4           C   tau(   4) = (   0.4073333   0.5000000   0.5000000  )
         5           C   tau(   5) = (   0.4533333   0.5800000   0.5000000  )
         6           C   tau(   6) = (   0.5466667   0.5800000   0.5000000  )
         7           H   tau(   7) = (   0.6593333   0.5000000   0.5000000  )
         8           H   tau(   8) = (   0.5800000   0.3620000   0.5000000  )
         9           H   tau(   9) = (   0.4200000   0.3620000   0.5000000  )
        10           H   tau(  10) = (   0.3406667   0.5000000   0.5000000  )
        11           H   tau(  11) = (   0.4200000   0.6380000   0.5000000  )
        12           H   tau(  12) = (   0.5800000   0.6380000   0.5000000  )
        13           C   tau(  13) = (   0.7800000   0.5466667   0.7600000  )
        14           C   tau(  14) = (   0.7800000   0.4533333   0.7600000  )
        15           C   tau(  15) = (   0.7000000   0.4073333   0.7600000  )
        16           C   tau(  16) = (   0.6200000   0.4533333   0.7600000  )
        17           C   tau(  17) = (   0.6200000   0.5466667   0.7600000  )
        18           C   tau(  18) = (   0.7000000   0.5926667   0.7600000  )
        19           H   tau(  19) = (   0.8380000   0.5800000   0.7600000  )
        20           H   tau(  20) = (   0.8380000   0.4200000   0.7600000  )
        21           H   tau(  21) = (   0.7000000   0.3406667   0.7600000  )
        22           H   tau(  22) = (   0.5620000   0.4206667   0.7600000  )
        23           H   tau(  23) = (   0.5620000   0.5800000   0.7600000  )
        24           H   tau(  24) = (   0.7000000   0.6593333   0.7600000  )

   Crystallographic axes

     site n.     atom                  positions (cryst. coord.)
         1           C   tau(   1) = (  0.5926667  0.5000000  0.5000000  )
         2           C   tau(   2) = (  0.5466667  0.4200000  0.5000000  )
         3           C   tau(   3) = (  0.4533333  0.4200000  0.5000000  )
         4           C   tau(   4) = (  0.4073333  0.5000000  0.5000000  )
         5           C   tau(   5) = (  0.4533333  0.5800000  0.5000000  )
         6           C   tau(   6) = (  0.5466667  0.5800000  0.5000000  )
         7           H   tau(   7) = (  0.6593333  0.5000000  0.5000000  )
         8           H   tau(   8) = (  0.5800000  0.3620000  0.5000000  )
         9           H   tau(   9) = (  0.4200000  0.3620000  0.5000000  )
        10           H   tau(  10) = (  0.3406667  0.5000000  0.5000000  )
        11           H   tau(  11) = (  0.4200000  0.6380000  0.5000000  )
        12           H   tau(  12) = (  0.5800000  0.6380000  0.5000000  )
        13           C   tau(  13) = (  0.7800000  0.5466667  0.7600000  )
        14           C   tau(  14) = (  0.7800000  0.4533333  0.7600000  )
        15           C   tau(  15) = (  0.7000000  0.4073333  0.7600000  )
        16           C   tau(  16) = (  0.6200000  0.4533333  0.7600000  )
        17           C   tau(  17) = (  0.6200000  0.5466667  0.7600000  )
        18           C   tau(  18) = (  0.7000000  0.5926667  0.7600000  )
        19           H   tau(  19) = (  0.8380000  0.5800000  0.7600000  )
        20           H   tau(  20) = (  0.8380000  0.4200000  0.7600000  )
        21           H   tau(  21) = (  0.7000000  0.3406667  0.7600000  )
        22           H   tau(  22) = (  0.5620000  0.4206667  0.7600000  )
        23           H   tau(  23) = (  0.5620000  0.5800000  0.7600000  )
        24           H   tau(  24) = (  0.7000000  0.6593333  0.7600000  )

     number of k points=     1
                       cart. coord. in units 2pi/alat
        k(    1) = (   0.0000000   0.0000000   0.0000000), wk =   2.0000000

                       cryst. coord.
        k(    1) = (   0.0000000   0.0000000   0.0000000), wk =   2.0000000

     Dense  grid:  5653693 G-vectors     FFT dimensions: ( 225, 225, 225)

     Smooth grid:  1429635 G-vectors     FFT dimensions: ( 144, 144, 144)

     Dynamical RAM for                 wfc:       0.64 MB

     Dynamical RAM for     wfc (w. buffer):       0.64 MB

     Dynamical RAM for           str. fact:       1.35 MB

     Dynamical RAM for           local pot:       0.00 MB

     Dynamical RAM for          nlocal pot:       2.56 MB

     Dynamical RAM for                qrad:       1.12 MB

     Dynamical RAM for          rho,v,vnew:       4.34 MB

     Dynamical RAM for               rhoin:       1.45 MB

     Dynamical RAM for            rho*nmix:      10.78 MB

     Dynamical RAM for           G-vectors:       2.61 MB

     Dynamical RAM for          h,s,v(r/c):       0.16 MB

     Dynamical RAM for          <psi|beta>:       0.05 MB

     Dynamical RAM for                 psi:       1.28 MB

     Dynamical RAM for                hpsi:       1.28 MB

     Dynamical RAM for                spsi:       1.28 MB

     Dynamical RAM for      wfcinit/wfcrot:       1.30 MB

     Dynamical RAM for           addusdens:      37.07 MB

     Estimated static dynamical RAM per process >      30.73 MB

     Estimated max dynamical RAM per process >      86.27 MB

     Estimated total dynamical RAM >      10.78 GB
     Cannot read rho : file not found

     Initial potential from superposition of free atoms

     starting charge   59.99939, renormalised to   60.00000

     negative rho (up, down):  1.115E-04 0.000E+00
     Message from routine qexsd_readschema :
     xml data file ./tmp/ben2.save/data-file-schema.xml not found
     Cannot read wfcs: file not found
     Starting wfcs are   60 randomized atomic wfcs
     Checking if some PAW data can be deallocated... 
       PAW data deallocated on   62 nodes for type:  1
       PAW data deallocated on   66 nodes for type:  2

     total cpu time spent up to now is        9.1 secs

     Self-consistent Calculation

     iteration #  1     ecut=    60.00 Ry     beta= 0.70
     Davidson diagonalization with overlap
     ethr =  1.00E-05,  avg # of iterations =  7.0

     negative rho (up, down):  1.984E-04 0.000E+00

     total cpu time spent up to now is       10.3 secs

          k = 0.0000 0.0000 0.0000     band energies (ev):

   -26.8519 -26.8444 -24.1683 -24.1681 -24.0060 -23.9957 -20.5427 -20.5341
   -20.4484 -20.4388 -18.3866 -18.3762 -16.8546 -16.8502 -16.6296 -16.6166
   -15.8275 -15.8229 -15.6930 -15.6813 -13.9033 -13.8870 -13.7841 -13.7837
   -13.4702 -13.3822 -10.8189 -10.8075 -10.6542 -10.6472

     occupation numbers 
     1.0000   1.0000   1.0000   1.0000   1.0000   1.0000   1.0000   1.0000
     1.0000   1.0000   1.0000   1.0000   1.0000   1.0000   1.0000   1.0000
     1.0000   1.0000   1.0000   1.0000   1.0000   1.0000   1.0000   1.0000
     1.0000   1.0000   1.0000   1.0000   1.0000   1.0000

     highest occupied level (ev):   -10.6472

!    total energy              =    -234.40900280 Ry

     total all-electron energy =      -927.578117 Ry
     estimated scf accuracy    <       3.40482791 Ry

     The total energy is the sum of the following terms:
     one-electron contribution =    -753.41948530 Ry
     hartree contribution      =     383.44022735 Ry
     xc contribution           =     -65.27466608 Ry
     ewald contribution        =     263.34755810 Ry
     scf correction            =      11.78563721 Ry
     one-center paw contrib.   =     -74.28827409 Ry
      -> PAW hartree energy AE =       9.23767710 Ry
      -> PAW hartree energy PS =      -9.22671047 Ry
      -> PAW xc energy AE      =     -10.64391372 Ry
      -> PAW xc energy PS      =       4.44198622 Ry
      -> total E_H with PAW    =     383.45119399 Ry
      -> total E_XC with PAW   =     -71.47659358 Ry

     iteration #  2     ecut=    60.00 Ry     beta= 0.70
     Davidson diagonalization with overlap
     ethr =  5.67E-03,  avg # of iterations =  2.0

     negative rho (up, down):  2.356E-04 0.000E+00

     total cpu time spent up to now is       11.2 secs

          k = 0.0000 0.0000 0.0000     band energies (ev):

   -18.9414 -18.9255 -16.7104 -16.6739 -16.6593 -16.6268 -13.6000 -13.5820
   -13.5405 -13.5213 -11.7126 -11.7080 -10.8254 -10.8202  -8.7047  -8.6678
    -8.6559  -8.6458  -8.6145  -8.5941  -7.1276  -6.9534  -6.6617  -6.6604
    -6.5623  -6.5591  -4.4555  -4.4421  -4.3167  -4.2348

     occupation numbers 
     1.0000   1.0000   1.0000   1.0000   1.0000   1.0000   1.0000   1.0000
     1.0000   1.0000   1.0000   1.0000   1.0000   1.0000   1.0000   1.0000
     1.0000   1.0000   1.0000   1.0000   1.0000   1.0000   1.0000   1.0000
     1.0000   1.0000   1.0000   1.0000   1.0000   1.0000

     highest occupied level (ev):    -4.2348

!    total energy              =    -235.14454511 Ry

     total all-electron energy =      -928.313660 Ry
     estimated scf accuracy    <       0.49866921 Ry

     The total energy is the sum of the following terms:
     one-electron contribution =    -729.62984095 Ry
     hartree contribution      =     375.67924132 Ry
     xc contribution           =     -64.53049585 Ry
     ewald contribution        =     263.34755810 Ry
     scf correction            =      -5.88735042 Ry
     one-center paw contrib.   =     -74.12365731 Ry
      -> PAW hartree energy AE =       9.31962902 Ry
      -> PAW hartree energy PS =      -9.31009711 Ry
      -> PAW xc energy AE      =     -10.64546040 Ry
      -> PAW xc energy PS      =       4.45897269 Ry
      -> total E_H with PAW    =     375.68877323 Ry
      -> total E_XC with PAW   =     -70.71698356 Ry

     iteration #  3     ecut=    60.00 Ry     beta= 0.70
     Davidson diagonalization with overlap
     ethr =  8.31E-04,  avg # of iterations =  2.0

     negative rho (up, down):  2.199E-04 0.000E+00

     total cpu time spent up to now is       11.9 secs

          k = 0.0000 0.0000 0.0000     band energies (ev):

   -21.2463 -21.2337 -18.5469 -18.5454 -18.4430 -18.4428 -14.9988 -14.9860
   -14.9329 -14.9264 -13.1953 -13.1902 -11.5558 -11.5512 -10.7446 -10.7426
   -10.4006 -10.3967 -10.3082 -10.3047  -9.0004  -8.8516  -8.2792  -8.2780
    -8.1763  -8.1745  -6.2338  -6.2156  -6.0827  -6.0466

     occupation numbers 
     1.0000   1.0000   1.0000   1.0000   1.0000   1.0000   1.0000   1.0000
     1.0000   1.0000   1.0000   1.0000   1.0000   1.0000   1.0000   1.0000
     1.0000   1.0000   1.0000   1.0000   1.0000   1.0000   1.0000   1.0000
     1.0000   1.0000   1.0000   1.0000   1.0000   1.0000

     highest occupied level (ev):    -6.0466

!    total energy              =    -235.23516633 Ry

     total all-electron energy =      -928.404281 Ry
     estimated scf accuracy    <       0.01343085 Ry

     The total energy is the sum of the following terms:
     one-electron contribution =    -737.43076026 Ry
     hartree contribution      =     376.93823035 Ry
     xc contribution           =     -64.71940684 Ry
     ewald contribution        =     263.34755810 Ry
     scf correction            =       0.68499726 Ry
     one-center paw contrib.   =     -74.05578493 Ry
      -> PAW hartree energy AE =       9.86340224 Ry
      -> PAW hartree energy PS =      -9.85425876 Ry
      -> PAW xc energy AE      =     -10.76810896 Ry
      -> PAW xc energy PS      =       4.58752526 Ry
      -> total E_H with PAW    =     376.94737383 Ry
      -> total E_XC with PAW   =     -70.89999054 Ry

     iteration #  4     ecut=    60.00 Ry     beta= 0.70
     Davidson diagonalization with overlap
     ethr =  2.24E-05,  avg # of iterations =  2.0

     negative rho (up, down):  2.232E-04 0.000E+00

     total cpu time spent up to now is       12.7 secs

          k = 0.0000 0.0000 0.0000     band energies (ev):

   -20.9059 -20.8932 -18.2741 -18.2647 -18.1624 -18.1554 -14.7538 -14.7411
   -14.6901 -14.6817 -12.8999 -12.8944 -11.3281 -11.3227 -10.4823 -10.4821
   -10.0954 -10.0818  -9.9944  -9.9843  -8.7514  -8.6019  -8.0024  -8.0018
    -7.8995  -7.8974  -6.0039  -5.9953  -5.8541  -5.8102

     occupation numbers 
     1.0000   1.0000   1.0000   1.0000   1.0000   1.0000   1.0000   1.0000
     1.0000   1.0000   1.0000   1.0000   1.0000   1.0000   1.0000   1.0000
     1.0000   1.0000   1.0000   1.0000   1.0000   1.0000   1.0000   1.0000
     1.0000   1.0000   1.0000   1.0000   1.0000   1.0000

     highest occupied level (ev):    -5.8102

!    total energy              =    -235.23678800 Ry

     total all-electron energy =      -928.405903 Ry
     estimated scf accuracy    <       0.00051185 Ry

     The total energy is the sum of the following terms:
     one-electron contribution =    -737.21729838 Ry
     hartree contribution      =     377.21911233 Ry
     xc contribution           =     -64.74549255 Ry
     ewald contribution        =     263.34755810 Ry
     scf correction            =       0.20531624 Ry
     one-center paw contrib.   =     -74.04598374 Ry
      -> PAW hartree energy AE =       9.98603962 Ry
      -> PAW hartree energy PS =      -9.97693753 Ry
      -> PAW xc energy AE      =     -10.79594254 Ry
      -> PAW xc energy PS      =       4.61617744 Ry
      -> total E_H with PAW    =     377.22821443 Ry
      -> total E_XC with PAW   =     -70.92525764 Ry

     iteration #  5     ecut=    60.00 Ry     beta= 0.70
     Davidson diagonalization with overlap
     ethr =  8.53E-07,  avg # of iterations =  3.0

     negative rho (up, down):  2.243E-04 0.000E+00

     total cpu time spent up to now is       13.5 secs

          k = 0.0000 0.0000 0.0000     band energies (ev):

   -20.8226 -20.8098 -18.2008 -18.1933 -18.0963 -18.0904 -14.6983 -14.6853
   -14.6341 -14.6260 -12.8467 -12.8415 -11.2961 -11.2912 -10.4059 -10.4056
   -10.0330 -10.0208  -9.9381  -9.9289  -8.6830  -8.5322  -7.9451  -7.9446
    -7.8421  -7.8402  -5.9383  -5.9282  -5.7906  -5.7469

     occupation numbers 
     1.0000   1.0000   1.0000   1.0000   1.0000   1.0000   1.0000   1.0000
     1.0000   1.0000   1.0000   1.0000   1.0000   1.0000   1.0000   1.0000
     1.0000   1.0000   1.0000   1.0000   1.0000   1.0000   1.0000   1.0000
     1.0000   1.0000   1.0000   1.0000   1.0000   1.0000

     highest occupied level (ev):    -5.7469

!    total energy              =    -235.23697293 Ry

     total all-electron energy =      -928.406088 Ry
     estimated scf accuracy    <       0.00002467 Ry

     The total energy is the sum of the following terms:
     one-electron contribution =    -736.98411696 Ry
     hartree contribution      =     377.18760411 Ry
     xc contribution           =     -64.74087821 Ry
     ewald contribution        =     263.34755810 Ry
     scf correction            =      -0.00388348 Ry
     one-center paw contrib.   =     -74.04325649 Ry
      -> PAW hartree energy AE =      10.01902447 Ry
      -> PAW hartree energy PS =     -10.00993607 Ry
      -> PAW xc energy AE      =     -10.80342693 Ry
      -> PAW xc energy PS      =       4.62389111 Ry
      -> total E_H with PAW    =     377.19669250 Ry
      -> total E_XC with PAW   =     -70.92041403 Ry

     iteration #  6     ecut=    60.00 Ry     beta= 0.70
     Davidson diagonalization with overlap
     ethr =  4.11E-08,  avg # of iterations =  4.0

     negative rho (up, down):  2.240E-04 0.000E+00

     total cpu time spent up to now is       14.2 secs

          k = 0.0000 0.0000 0.0000     band energies (ev):

   -20.8354 -20.8224 -18.2078 -18.2019 -18.1042 -18.0975 -14.7025 -14.6893
   -14.6379 -14.6303 -12.8544 -12.8497 -11.2976 -11.2929 -10.4128 -10.4113
   -10.0423 -10.0315  -9.9484  -9.9382  -8.6908  -8.5398  -7.9521  -7.9508
    -7.8484  -7.8472  -5.9451  -5.9342  -5.7973  -5.7535

     occupation numbers 
     1.0000   1.0000   1.0000   1.0000   1.0000   1.0000   1.0000   1.0000
     1.0000   1.0000   1.0000   1.0000   1.0000   1.0000   1.0000   1.0000
     1.0000   1.0000   1.0000   1.0000   1.0000   1.0000   1.0000   1.0000
     1.0000   1.0000   1.0000   1.0000   1.0000   1.0000

     highest occupied level (ev):    -5.7535

!    total energy              =    -235.23697999 Ry

     total all-electron energy =      -928.406095 Ry
     estimated scf accuracy    <       0.00000277 Ry

     The total energy is the sum of the following terms:
     one-electron contribution =    -737.00089575 Ry
     hartree contribution      =     377.19251655 Ry
     xc contribution           =     -64.73982774 Ry
     ewald contribution        =     263.34755810 Ry
     scf correction            =       0.00679905 Ry
     one-center paw contrib.   =     -74.04313020 Ry
      -> PAW hartree energy AE =      10.02306262 Ry
      -> PAW hartree energy PS =     -10.01397356 Ry
      -> PAW xc energy AE      =     -10.80436328 Ry
      -> PAW xc energy PS      =       4.62482780 Ry
      -> total E_H with PAW    =     377.20160561 Ry
      -> total E_XC with PAW   =     -70.91936322 Ry

     iteration #  7     ecut=    60.00 Ry     beta= 0.70
     Davidson diagonalization with overlap
     ethr =  4.62E-09,  avg # of iterations =  5.0

     negative rho (up, down):  2.239E-04 0.000E+00

     total cpu time spent up to now is       15.0 secs

          k = 0.0000 0.0000 0.0000     band energies (ev):

   -20.8324 -20.8195 -18.2069 -18.1998 -18.1022 -18.0965 -14.7021 -14.6891
   -14.6379 -14.6296 -12.8538 -12.8486 -11.2989 -11.2940 -10.4108 -10.4104
   -10.0416 -10.0296  -9.9466  -9.9374  -8.6885  -8.5377  -7.9511  -7.9506
    -7.8481  -7.8461  -5.9432  -5.9328  -5.7952  -5.7518

     occupation numbers 
     1.0000   1.0000   1.0000   1.0000   1.0000   1.0000   1.0000   1.0000
     1.0000   1.0000   1.0000   1.0000   1.0000   1.0000   1.0000   1.0000
     1.0000   1.0000   1.0000   1.0000   1.0000   1.0000   1.0000   1.0000
     1.0000   1.0000   1.0000   1.0000   1.0000   1.0000

     highest occupied level (ev):    -5.7518

!    total energy              =    -235.23698080 Ry

     total all-electron energy =      -928.406095 Ry
     estimated scf accuracy    <       0.00000066 Ry

     The total energy is the sum of the following terms:
     one-electron contribution =    -736.98816427 Ry
     hartree contribution      =     377.19125627 Ry
     xc contribution           =     -64.73966377 Ry
     ewald contribution        =     263.34755810 Ry
     scf correction            =      -0.00493408 Ry
     one-center paw contrib.   =     -74.04303305 Ry
      -> PAW hartree energy AE =      10.02355934 Ry
      -> PAW hartree energy PS =     -10.01447123 Ry
      -> PAW xc energy AE      =     -10.80446743 Ry
      -> PAW xc energy PS      =       4.62494291 Ry
      -> total E_H with PAW    =     377.20034439 Ry
      -> total E_XC with PAW   =     -70.91918828 Ry

     iteration #  8     ecut=    60.00 Ry     beta= 0.70
     Davidson diagonalization with overlap
     ethr =  1.10E-09,  avg # of iterations =  4.0

     negative rho (up, down):  2.239E-04 0.000E+00

     total cpu time spent up to now is       15.8 secs

          k = 0.0000 0.0000 0.0000     band energies (ev):

   -20.8325 -20.8197 -18.2071 -18.2004 -18.1026 -18.0966 -14.7025 -14.6895
   -14.6382 -14.6301 -12.8539 -12.8488 -11.2992 -11.2944 -10.4113 -10.4107
   -10.0417 -10.0300  -9.9469  -9.9374  -8.6888  -8.5379  -7.9516  -7.9508
    -7.8483  -7.8466  -5.9435  -5.9330  -5.7955  -5.7521

     occupation numbers 
     1.0000   1.0000   1.0000   1.0000   1.0000   1.0000   1.0000   1.0000
     1.0000   1.0000   1.0000   1.0000   1.0000   1.0000   1.0000   1.0000
     1.0000   1.0000   1.0000   1.0000   1.0000   1.0000   1.0000   1.0000
     1.0000   1.0000   1.0000   1.0000   1.0000   1.0000

     highest occupied level (ev):    -5.7521

!    total energy              =    -235.23698085 Ry

     total all-electron energy =      -928.406095 Ry
     estimated scf accuracy    <       0.00000008 Ry

     The total energy is the sum of the following terms:
     one-electron contribution =    -736.98864482 Ry
     hartree contribution      =     377.18937110 Ry
     xc contribution           =     -64.73965838 Ry
     ewald contribution        =     263.34755810 Ry
     scf correction            =      -0.00264324 Ry
     one-center paw contrib.   =     -74.04296361 Ry
      -> PAW hartree energy AE =      10.02382361 Ry
      -> PAW hartree energy PS =     -10.01473599 Ry
      -> PAW xc energy AE      =     -10.80452278 Ry
      -> PAW xc energy PS      =       4.62500396 Ry
      -> total E_H with PAW    =     377.19845871 Ry
      -> total E_XC with PAW   =     -70.91917720 Ry

     iteration #  9     ecut=    60.00 Ry     beta= 0.70
     Davidson diagonalization with overlap
     ethr =  1.39E-10,  avg # of iterations =  5.0

     negative rho (up, down):  2.238E-04 0.000E+00

     total cpu time spent up to now is       16.5 secs

          k = 0.0000 0.0000 0.0000     band energies (ev):

   -20.8332 -20.8203 -18.2075 -18.2010 -18.1032 -18.0970 -14.7029 -14.6898
   -14.6385 -14.6305 -12.8541 -12.8491 -11.2992 -11.2944 -10.4121 -10.4112
   -10.0419 -10.0305  -9.9473  -9.9376  -8.6894  -8.5384  -7.9520  -7.9511
    -7.8486  -7.8470  -5.9441  -5.9335  -5.7962  -5.7526

     occupation numbers 
     1.0000   1.0000   1.0000   1.0000   1.0000   1.0000   1.0000   1.0000
     1.0000   1.0000   1.0000   1.0000   1.0000   1.0000   1.0000   1.0000
     1.0000   1.0000   1.0000   1.0000   1.0000   1.0000   1.0000   1.0000
     1.0000   1.0000   1.0000   1.0000   1.0000   1.0000

     highest occupied level (ev):    -5.7526

!    total energy              =    -235.23698089 Ry

     total all-electron energy =      -928.406095 Ry
     estimated scf accuracy    <       0.00000002 Ry

     The total energy is the sum of the following terms:
     one-electron contribution =    -736.99193969 Ry
     hartree contribution      =     377.18935047 Ry
     xc contribution           =     -64.73965631 Ry
     ewald contribution        =     263.34755810 Ry
     scf correction            =       0.00067197 Ry
     one-center paw contrib.   =     -74.04296542 Ry
      -> PAW hartree energy AE =      10.02394420 Ry
      -> PAW hartree energy PS =     -10.01485648 Ry
      -> PAW xc energy AE      =     -10.80455161 Ry
      -> PAW xc energy PS      =       4.62503182 Ry
      -> total E_H with PAW    =     377.19843819 Ry
      -> total E_XC with PAW   =     -70.91917610 Ry

     iteration # 10     ecut=    60.00 Ry     beta= 0.70
     Davidson diagonalization with overlap
     ethr =  3.95E-11,  avg # of iterations =  3.0

     negative rho (up, down):  2.238E-04 0.000E+00

     total cpu time spent up to now is       17.2 secs

     End of self-consistent calculation

          k = 0.0000 0.0000 0.0000 (178925 PWs)   bands (ev):

   -20.8332 -20.8203 -18.2076 -18.2010 -18.1032 -18.0971 -14.7029 -14.6898
   -14.6385 -14.6305 -12.8541 -12.8491 -11.2992 -11.2944 -10.4121 -10.4112
   -10.0420 -10.0305  -9.9473  -9.9377  -8.6894  -8.5385  -7.9520  -7.9512
    -7.8486  -7.8470  -5.9441  -5.9335  -5.7962  -5.7526

     occupation numbers 
     1.0000   1.0000   1.0000   1.0000   1.0000   1.0000   1.0000   1.0000
     1.0000   1.0000   1.0000   1.0000   1.0000   1.0000   1.0000   1.0000
     1.0000   1.0000   1.0000   1.0000   1.0000   1.0000   1.0000   1.0000
     1.0000   1.0000   1.0000   1.0000   1.0000   1.0000

     highest occupied level (ev):    -5.7526

!    total energy              =    -235.23698088 Ry

     total all-electron energy =      -928.406095 Ry
     estimated scf accuracy    <          8.1E-09 Ry

     The total energy is the sum of the following terms:
     one-electron contribution =    -736.99212458 Ry
     hartree contribution      =     377.19028871 Ry
     xc contribution           =     -64.73972078 Ry
     ewald contribution        =     263.34755810 Ry
     one-center paw contrib.   =     -74.04298233 Ry
      -> PAW hartree energy AE =      10.02426104 Ry
      -> PAW hartree energy PS =     -10.01517292 Ry
      -> PAW xc energy AE      =     -10.80462835 Ry
      -> PAW xc energy PS      =       4.62510510 Ry
      -> total E_H with PAW    =     377.19937683 Ry
      -> total E_XC with PAW   =     -70.91924403 Ry

     convergence has been achieved in  10 iterations

     Writing output data file ./tmp/ben2.save/
 
     init_run     :      5.03s CPU      6.98s WALL (       1 calls)
     electrons    :      7.30s CPU      8.54s WALL (       1 calls)

     Called by init_run:
     wfcinit      :      0.16s CPU      1.03s WALL (       1 calls)
     wfcinit:atom :      0.00s CPU      0.00s WALL (       1 calls)
     wfcinit:wfcr :      0.16s CPU      1.03s WALL (       1 calls)
     potinit      :      0.20s CPU      0.42s WALL (       1 calls)
     hinit0       :      0.19s CPU      0.79s WALL (       1 calls)

     Called by electrons:
     c_bands      :      3.00s CPU      3.20s WALL (      10 calls)
     sum_band     :      1.45s CPU      1.78s WALL (      10 calls)
     v_of_rho     :      1.44s CPU      1.58s WALL (      11 calls)
     v_h          :      0.13s CPU      0.14s WALL (      11 calls)
     v_xc         :      1.31s CPU      1.44s WALL (      11 calls)
     newd         :      0.74s CPU      1.18s WALL (      11 calls)
     PAW_pot      :      0.20s CPU      0.35s WALL (      11 calls)
     mix_rho      :      0.26s CPU      0.32s WALL (      10 calls)

     Called by c_bands:
     init_us_2    :      0.03s CPU      0.04s WALL (      21 calls)
     cegterg      :      2.95s CPU      3.14s WALL (      10 calls)

     Called by sum_band:
     sum_band:wei :      0.00s CPU      0.00s WALL (      10 calls)
     sum_band:loo :      0.40s CPU      0.41s WALL (      10 calls)
     sum_band:buf :      0.00s CPU      0.00s WALL (      10 calls)
     sum_band:ini :      0.02s CPU      0.02s WALL (      10 calls)
     sum_band:cal :      0.04s CPU      0.04s WALL (      10 calls)
     sum_band:bec :      0.00s CPU      0.00s WALL (      10 calls)
     addusdens    :      0.90s CPU      1.20s WALL (      10 calls)
     addusd:skk   :      0.11s CPU      0.15s WALL (      20 calls)
     addusd:dgemm :      0.51s CPU      0.75s WALL (      20 calls)
     addusd:qvan2 :      0.21s CPU      0.21s WALL (      20 calls)

     Called by *egterg:
     cdiaghg      :      0.06s CPU      0.85s WALL (      47 calls)
     cegterg:over :      0.10s CPU      0.10s WALL (      37 calls)
     cegterg:upda :      0.04s CPU      0.04s WALL (      37 calls)
     cegterg:last :      0.11s CPU      0.12s WALL (      28 calls)
     h_psi        :      2.53s CPU      2.75s WALL (      48 calls)
     s_psi        :      0.17s CPU      0.17s WALL (      48 calls)
     g_psi        :      0.00s CPU      0.00s WALL (      37 calls)

     Called by h_psi:
     h_psi:calbec :      0.17s CPU      0.33s WALL (      48 calls)
     vloc_psi     :      2.15s CPU      2.21s WALL (      48 calls)
     add_vuspsi   :      0.19s CPU      0.20s WALL (      48 calls)

     General routines
     calbec       :      0.21s CPU      0.37s WALL (      58 calls)
     fft          :      1.18s CPU      1.84s WALL (     141 calls)
     ffts         :      0.07s CPU      0.09s WALL (      21 calls)
     fftw         :      2.31s CPU      2.37s WALL (    2352 calls)
     interpolate  :      0.14s CPU      0.17s WALL (      11 calls)
 
     Parallel routines
     fft_scatt_xy :      0.27s CPU      0.28s WALL (    2514 calls)
     fft_scatt_yz :      2.30s CPU      2.41s WALL (    2514 calls)

     PAW routines
     PAW_pot      :      0.20s CPU      0.35s WALL (      11 calls)
 
     PWSCF        :     13.25s CPU     18.37s WALL

 
   This run was terminated on:   5:59:29  23Dec2021            

=------------------------------------------------------------------------------=
   JOB DONE.
=------------------------------------------------------------------------------=
