
     Program PWSCF v.6.6 starts on 23Dec2021 at  4:36:19 

     This program is part of the open-source Quantum ESPRESSO suite
     for quantum simulation of materials; please cite
         "P. Giannozzi et al., J. Phys.:Condens. Matter 21 395502 (2009);
         "P. Giannozzi et al., J. Phys.:Condens. Matter 29 465901 (2017);
          URL http://www.quantum-espresso.org", 
     in publications or presentations arising from this work. More details at
     http://www.quantum-espresso.org/quote

     Parallel version (MPI & OpenMP), running on     128 processor cores
     Number of MPI processes:               128
     Threads/MPI process:                     1

     MPI processes distributed on     1 nodes
     R & G space division:  proc/nbgrp/npool/nimage =     128
     Fft bands division:     nmany     =       1
     Waiting for input...
     Reading input from standard input

     Current dimensions of program PWSCF are:
     Max number of different atomic species (ntypx) = 10
     Max number of k-points (npk) =  40000
     Max angular momentum in pseudopotentials (lmaxx) =  3
     Message from routine iosys:
     restart disabled: needed files not found
     file C.pbe-n-kjpaw_psl.1.0.0.UPF: wavefunction(s)  2S 2P renormalized
     file H.pbe-kjpaw_psl.1.0.0.UPF: wavefunction(s)  1S renormalized

     Subspace diagonalization in iterative solution of the eigenvalue problem:
     a serial algorithm will be used

 
     Parallelization info
     --------------------
     sticks:   dense  smooth     PW     G-vecs:    dense   smooth      PW
     Min         299     119     29                44165    11165    1391
     Max         300     120     30                44172    11174    1402
     Sum       38393   15329   3833              5653693  1429635  178925
 


     bravais-lattice index     =            0
     lattice parameter (alat)  =      28.3459  a.u.
     unit-cell volume          =   22775.6289 (a.u.)^3
     number of atoms/cell      =           24
     number of atomic types    =            2
     number of electrons       =        60.00
     number of Kohn-Sham states=           30
     kinetic-energy cutoff     =      60.0000  Ry
     charge density cutoff     =     600.0000  Ry
     convergence threshold     =      1.0E-08
     mixing beta               =       0.7000
     number of iterations used =            8  plain     mixing
     Exchange-correlation= SLA PW PBX PBC
                           (   1   4   3   4   0   0   0)

     celldm(1)=  28.345892  celldm(2)=   0.000000  celldm(3)=   0.000000
     celldm(4)=   0.000000  celldm(5)=   0.000000  celldm(6)=   0.000000

     crystal axes: (cart. coord. in units of alat)
               a(1) = (   1.000000   0.000000   0.000000 )  
               a(2) = (   0.000000   1.000000   0.000000 )  
               a(3) = (   0.000000   0.000000   1.000000 )  

     reciprocal axes: (cart. coord. in units 2 pi/alat)
               b(1) = (  1.000000  0.000000  0.000000 )  
               b(2) = (  0.000000  1.000000  0.000000 )  
               b(3) = (  0.000000  0.000000  1.000000 )  


     PseudoPot. # 1 for C  read from file:
     /home/k0151/k015124/src/pseudo/C.pbe-n-kjpaw_psl.1.0.0.UPF
     MD5 check sum: 5f16ad9a65e90284d1d834d4ab3b0f7d
     Pseudo is Projector augmented-wave + core cor, Zval =  4.0
     Generated using "atomic" code by A. Dal Corso v.6.3
     Shape of augmentation charge: PSQ
     Using radial grid of 1073 points,  4 beta functions with: 
                l(1) =   0
                l(2) =   0
                l(3) =   1
                l(4) =   1
     Q(r) pseudized with 0 coefficients 


     PseudoPot. # 2 for H  read from file:
     /home/k0151/k015124/src/pseudo/H.pbe-kjpaw_psl.1.0.0.UPF
     MD5 check sum: d81a744832360e4a8af0b0b5b123bc2a
     Pseudo is Projector augmented-wave, Zval =  1.0
     Generated using "atomic" code by A. Dal Corso v.6.3MaX
     Shape of augmentation charge: PSQ
     Using radial grid of  929 points,  2 beta functions with: 
                l(1) =   0
                l(2) =   0
     Q(r) pseudized with 0 coefficients 


     atomic species   valence    mass     pseudopotential
        C              4.00    12.01100     C ( 1.00)
        H              1.00     1.00800     H ( 1.00)

     No symmetry found


                                    s                        frac. trans.

      isym =  1     identity                                     

 cryst.   s( 1) = (     1          0          0      )
                  (     0          1          0      )
                  (     0          0          1      )

 cart.    s( 1) = (  1.0000000  0.0000000  0.0000000 )
                  (  0.0000000  1.0000000  0.0000000 )
                  (  0.0000000  0.0000000  1.0000000 )


   Cartesian axes

     site n.     atom                  positions (alat units)
         1           C   tau(   1) = (   0.5926667   0.5000000   0.5000000  )
         2           C   tau(   2) = (   0.5466667   0.4200000   0.5000000  )
         3           C   tau(   3) = (   0.4533333   0.4200000   0.5000000  )
         4           C   tau(   4) = (   0.4073333   0.5000000   0.5000000  )
         5           C   tau(   5) = (   0.4533333   0.5800000   0.5000000  )
         6           C   tau(   6) = (   0.5466667   0.5800000   0.5000000  )
         7           H   tau(   7) = (   0.6593333   0.5000000   0.5000000  )
         8           H   tau(   8) = (   0.5800000   0.3620000   0.5000000  )
         9           H   tau(   9) = (   0.4200000   0.3620000   0.5000000  )
        10           H   tau(  10) = (   0.3406667   0.5000000   0.5000000  )
        11           H   tau(  11) = (   0.4200000   0.6380000   0.5000000  )
        12           H   tau(  12) = (   0.5800000   0.6380000   0.5000000  )
        13           C   tau(  13) = (   0.7800000   0.5466667   0.7666667  )
        14           C   tau(  14) = (   0.7800000   0.4533333   0.7666667  )
        15           C   tau(  15) = (   0.7000000   0.4073333   0.7666667  )
        16           C   tau(  16) = (   0.6200000   0.4533333   0.7666667  )
        17           C   tau(  17) = (   0.6200000   0.5466667   0.7666667  )
        18           C   tau(  18) = (   0.7000000   0.5926667   0.7666667  )
        19           H   tau(  19) = (   0.8380000   0.5800000   0.7666667  )
        20           H   tau(  20) = (   0.8380000   0.4200000   0.7666667  )
        21           H   tau(  21) = (   0.7000000   0.3406667   0.7666667  )
        22           H   tau(  22) = (   0.5620000   0.4206667   0.7666667  )
        23           H   tau(  23) = (   0.5620000   0.5800000   0.7666667  )
        24           H   tau(  24) = (   0.7000000   0.6593333   0.7666667  )

   Crystallographic axes

     site n.     atom                  positions (cryst. coord.)
         1           C   tau(   1) = (  0.5926667  0.5000000  0.5000000  )
         2           C   tau(   2) = (  0.5466667  0.4200000  0.5000000  )
         3           C   tau(   3) = (  0.4533333  0.4200000  0.5000000  )
         4           C   tau(   4) = (  0.4073333  0.5000000  0.5000000  )
         5           C   tau(   5) = (  0.4533333  0.5800000  0.5000000  )
         6           C   tau(   6) = (  0.5466667  0.5800000  0.5000000  )
         7           H   tau(   7) = (  0.6593333  0.5000000  0.5000000  )
         8           H   tau(   8) = (  0.5800000  0.3620000  0.5000000  )
         9           H   tau(   9) = (  0.4200000  0.3620000  0.5000000  )
        10           H   tau(  10) = (  0.3406667  0.5000000  0.5000000  )
        11           H   tau(  11) = (  0.4200000  0.6380000  0.5000000  )
        12           H   tau(  12) = (  0.5800000  0.6380000  0.5000000  )
        13           C   tau(  13) = (  0.7800000  0.5466667  0.7666667  )
        14           C   tau(  14) = (  0.7800000  0.4533333  0.7666667  )
        15           C   tau(  15) = (  0.7000000  0.4073333  0.7666667  )
        16           C   tau(  16) = (  0.6200000  0.4533333  0.7666667  )
        17           C   tau(  17) = (  0.6200000  0.5466667  0.7666667  )
        18           C   tau(  18) = (  0.7000000  0.5926667  0.7666667  )
        19           H   tau(  19) = (  0.8380000  0.5800000  0.7666667  )
        20           H   tau(  20) = (  0.8380000  0.4200000  0.7666667  )
        21           H   tau(  21) = (  0.7000000  0.3406667  0.7666667  )
        22           H   tau(  22) = (  0.5620000  0.4206667  0.7666667  )
        23           H   tau(  23) = (  0.5620000  0.5800000  0.7666667  )
        24           H   tau(  24) = (  0.7000000  0.6593333  0.7666667  )

     number of k points=     1
                       cart. coord. in units 2pi/alat
        k(    1) = (   0.0000000   0.0000000   0.0000000), wk =   2.0000000

                       cryst. coord.
        k(    1) = (   0.0000000   0.0000000   0.0000000), wk =   2.0000000

     Dense  grid:  5653693 G-vectors     FFT dimensions: ( 225, 225, 225)

     Smooth grid:  1429635 G-vectors     FFT dimensions: ( 144, 144, 144)

     Dynamical RAM for                 wfc:       0.64 MB

     Dynamical RAM for     wfc (w. buffer):       0.64 MB

     Dynamical RAM for           str. fact:       1.35 MB

     Dynamical RAM for           local pot:       0.00 MB

     Dynamical RAM for          nlocal pot:       2.56 MB

     Dynamical RAM for                qrad:       1.12 MB

     Dynamical RAM for          rho,v,vnew:       4.34 MB

     Dynamical RAM for               rhoin:       1.45 MB

     Dynamical RAM for            rho*nmix:      10.78 MB

     Dynamical RAM for           G-vectors:       2.61 MB

     Dynamical RAM for          h,s,v(r/c):       0.16 MB

     Dynamical RAM for          <psi|beta>:       0.05 MB

     Dynamical RAM for                 psi:       1.28 MB

     Dynamical RAM for                hpsi:       1.28 MB

     Dynamical RAM for                spsi:       1.28 MB

     Dynamical RAM for      wfcinit/wfcrot:       1.30 MB

     Dynamical RAM for           addusdens:      37.07 MB

     Estimated static dynamical RAM per process >      30.73 MB

     Estimated max dynamical RAM per process >      86.27 MB

     Estimated total dynamical RAM >      10.78 GB
     Cannot read rho : file not found

     Initial potential from superposition of free atoms

     starting charge   59.99939, renormalised to   60.00000

     negative rho (up, down):  1.108E-04 0.000E+00
     Message from routine qexsd_readschema :
     xml data file ./tmp/ben2.save/data-file-schema.xml not found
     Cannot read wfcs: file not found
     Starting wfcs are   60 randomized atomic wfcs
     Checking if some PAW data can be deallocated... 
       PAW data deallocated on   62 nodes for type:  1
       PAW data deallocated on   66 nodes for type:  2

     total cpu time spent up to now is        9.2 secs

     Self-consistent Calculation

     iteration #  1     ecut=    60.00 Ry     beta= 0.70
     Davidson diagonalization with overlap
     ethr =  1.00E-05,  avg # of iterations =  7.0

     negative rho (up, down):  1.978E-04 0.000E+00

     total cpu time spent up to now is       10.5 secs

          k = 0.0000 0.0000 0.0000     band energies (ev):

   -26.8509 -26.8449 -24.1681 -24.1678 -24.0057 -23.9956 -20.5419 -20.5344
   -20.4481 -20.4386 -18.3863 -18.3760 -16.8544 -16.8500 -16.6294 -16.6164
   -15.8274 -15.8226 -15.6928 -15.6812 -13.9031 -13.8868 -13.7838 -13.7836
   -13.4623 -13.3881 -10.8135 -10.8056 -10.6547 -10.6511

     occupation numbers 
     1.0000   1.0000   1.0000   1.0000   1.0000   1.0000   1.0000   1.0000
     1.0000   1.0000   1.0000   1.0000   1.0000   1.0000   1.0000   1.0000
     1.0000   1.0000   1.0000   1.0000   1.0000   1.0000   1.0000   1.0000
     1.0000   1.0000   1.0000   1.0000   1.0000   1.0000

     highest occupied level (ev):   -10.6511

!    total energy              =    -234.40854412 Ry

     total all-electron energy =      -927.577659 Ry
     estimated scf accuracy    <       3.40591244 Ry

     The total energy is the sum of the following terms:
     one-electron contribution =    -748.57013832 Ry
     hartree contribution      =     381.01292284 Ry
     xc contribution           =     -65.27467836 Ry
     ewald contribution        =     260.93222304 Ry
     scf correction            =      11.77941496 Ry
     one-center paw contrib.   =     -74.28828829 Ry
      -> PAW hartree energy AE =       9.23770817 Ry
      -> PAW hartree energy PS =      -9.22674140 Ry
      -> PAW xc energy AE      =     -10.64392369 Ry
      -> PAW xc energy PS      =       4.44199492 Ry
      -> total E_H with PAW    =     381.02388962 Ry
      -> total E_XC with PAW   =     -71.47660713 Ry

     iteration #  2     ecut=    60.00 Ry     beta= 0.70
     Davidson diagonalization with overlap
     ethr =  5.68E-03,  avg # of iterations =  2.0

     negative rho (up, down):  2.355E-04 0.000E+00

     total cpu time spent up to now is       11.5 secs

          k = 0.0000 0.0000 0.0000     band energies (ev):

   -18.9421 -18.9290 -16.7113 -16.6775 -16.6604 -16.6320 -13.6012 -13.5863
   -13.5430 -13.5246 -11.7152 -11.7105 -10.8288 -10.8233  -8.7059  -8.6717
    -8.6574  -8.6491  -8.6165  -8.5974  -7.1196  -6.9648  -6.6643  -6.6637
    -6.5653  -6.5625  -4.4500  -4.4347  -4.3238  -4.2543

     occupation numbers 
     1.0000   1.0000   1.0000   1.0000   1.0000   1.0000   1.0000   1.0000
     1.0000   1.0000   1.0000   1.0000   1.0000   1.0000   1.0000   1.0000
     1.0000   1.0000   1.0000   1.0000   1.0000   1.0000   1.0000   1.0000
     1.0000   1.0000   1.0000   1.0000   1.0000   1.0000

     highest occupied level (ev):    -4.2543

!    total energy              =    -235.14456450 Ry

     total all-electron energy =      -928.313679 Ry
     estimated scf accuracy    <       0.49900295 Ry

     The total energy is the sum of the following terms:
     one-electron contribution =    -724.80690989 Ry
     hartree contribution      =     373.26216419 Ry
     xc contribution           =     -64.52964565 Ry
     ewald contribution        =     260.93222304 Ry
     scf correction            =      -5.87874408 Ry
     one-center paw contrib.   =     -74.12365211 Ry
      -> PAW hartree energy AE =       9.31990824 Ry
      -> PAW hartree energy PS =      -9.31037567 Ry
      -> PAW xc energy AE      =     -10.64553364 Ry
      -> PAW xc energy PS      =       4.45903938 Ry
      -> total E_H with PAW    =     373.27169676 Ry
      -> total E_XC with PAW   =     -70.71613991 Ry

     iteration #  3     ecut=    60.00 Ry     beta= 0.70
     Davidson diagonalization with overlap
     ethr =  8.32E-04,  avg # of iterations =  2.0

     negative rho (up, down):  2.200E-04 0.000E+00

     total cpu time spent up to now is       12.2 secs

          k = 0.0000 0.0000 0.0000     band energies (ev):

   -21.2453 -21.2352 -18.5470 -18.5458 -18.4435 -18.4433 -14.9979 -14.9877
   -14.9332 -14.9269 -13.1955 -13.1909 -11.5565 -11.5516 -10.7449 -10.7431
   -10.4009 -10.3971 -10.3085 -10.3053  -8.9904  -8.8607  -8.2798  -8.2782
    -8.1769  -8.1750  -6.2247  -6.2111  -6.0866  -6.0576

     occupation numbers 
     1.0000   1.0000   1.0000   1.0000   1.0000   1.0000   1.0000   1.0000
     1.0000   1.0000   1.0000   1.0000   1.0000   1.0000   1.0000   1.0000
     1.0000   1.0000   1.0000   1.0000   1.0000   1.0000   1.0000   1.0000
     1.0000   1.0000   1.0000   1.0000   1.0000   1.0000

     highest occupied level (ev):    -6.0576

!    total energy              =    -235.23523081 Ry

     total all-electron energy =      -928.404345 Ry
     estimated scf accuracy    <       0.01342449 Ry

     The total energy is the sum of the following terms:
     one-electron contribution =    -732.59370173 Ry
     hartree contribution      =     374.51785466 Ry
     xc contribution           =     -64.71860806 Ry
     ewald contribution        =     260.93222304 Ry
     scf correction            =       0.68276230 Ry
     one-center paw contrib.   =     -74.05576103 Ry
      -> PAW hartree energy AE =       9.86346683 Ry
      -> PAW hartree energy PS =      -9.85432367 Ry
      -> PAW xc energy AE      =     -10.76811877 Ry
      -> PAW xc energy PS      =       4.58753938 Ry
      -> total E_H with PAW    =     374.52699781 Ry
      -> total E_XC with PAW   =     -70.89918745 Ry

     iteration #  4     ecut=    60.00 Ry     beta= 0.70
     Davidson diagonalization with overlap
     ethr =  2.24E-05,  avg # of iterations =  2.0

     negative rho (up, down):  2.232E-04 0.000E+00

     total cpu time spent up to now is       13.0 secs

          k = 0.0000 0.0000 0.0000     band energies (ev):

   -20.9056 -20.8955 -18.2748 -18.2659 -18.1630 -18.1572 -14.7537 -14.7436
   -14.6912 -14.6829 -12.9008 -12.8956 -11.3294 -11.3238 -10.4836 -10.4832
   -10.0962 -10.0833  -9.9949  -9.9859  -8.7423  -8.6116  -8.0038  -8.0027
    -7.9006  -7.8988  -5.9959  -5.9914  -5.8583  -5.8226

     occupation numbers 
     1.0000   1.0000   1.0000   1.0000   1.0000   1.0000   1.0000   1.0000
     1.0000   1.0000   1.0000   1.0000   1.0000   1.0000   1.0000   1.0000
     1.0000   1.0000   1.0000   1.0000   1.0000   1.0000   1.0000   1.0000
     1.0000   1.0000   1.0000   1.0000   1.0000   1.0000

     highest occupied level (ev):    -5.8226

!    total energy              =    -235.23684987 Ry

     total all-electron energy =      -928.405964 Ry
     estimated scf accuracy    <       0.00051213 Ry

     The total energy is the sum of the following terms:
     one-electron contribution =    -732.38295380 Ry
     hartree contribution      =     374.79921809 Ry
     xc contribution           =     -64.74467778 Ry
     ewald contribution        =     260.93222304 Ry
     scf correction            =       0.20531358 Ry
     one-center paw contrib.   =     -74.04597301 Ry
      -> PAW hartree energy AE =       9.98611982 Ry
      -> PAW hartree energy PS =      -9.97701797 Ry
      -> PAW xc energy AE      =     -10.79595606 Ry
      -> PAW xc energy PS      =       4.61619450 Ry
      -> total E_H with PAW    =     374.80831994 Ry
      -> total E_XC with PAW   =     -70.92443934 Ry

     iteration #  5     ecut=    60.00 Ry     beta= 0.70
     Davidson diagonalization with overlap
     ethr =  8.54E-07,  avg # of iterations =  3.0

     negative rho (up, down):  2.244E-04 0.000E+00

     total cpu time spent up to now is       13.8 secs

          k = 0.0000 0.0000 0.0000     band energies (ev):

   -20.8222 -20.8119 -18.2014 -18.1944 -18.0969 -18.0921 -14.6980 -14.6877
   -14.6351 -14.6271 -12.8476 -12.8427 -11.2973 -11.2923 -10.4068 -10.4067
   -10.0337 -10.0221  -9.9386  -9.9303  -8.6737  -8.5419  -7.9462  -7.9456
    -7.8431  -7.8415  -5.9301  -5.9240  -5.7948  -5.7594

     occupation numbers 
     1.0000   1.0000   1.0000   1.0000   1.0000   1.0000   1.0000   1.0000
     1.0000   1.0000   1.0000   1.0000   1.0000   1.0000   1.0000   1.0000
     1.0000   1.0000   1.0000   1.0000   1.0000   1.0000   1.0000   1.0000
     1.0000   1.0000   1.0000   1.0000   1.0000   1.0000

     highest occupied level (ev):    -5.7594

!    total energy              =    -235.23703440 Ry

     total all-electron energy =      -928.406149 Ry
     estimated scf accuracy    <       0.00002460 Ry

     The total energy is the sum of the following terms:
     one-electron contribution =    -732.15001393 Ry
     hartree contribution      =     374.76780964 Ry
     xc contribution           =     -64.74003180 Ry
     ewald contribution        =     260.93222304 Ry
     scf correction            =      -0.00378673 Ry
     one-center paw contrib.   =     -74.04323463 Ry
      -> PAW hartree energy AE =      10.01935578 Ry
      -> PAW hartree energy PS =     -10.01026767 Ry
      -> PAW xc energy AE      =     -10.80349713 Ry
      -> PAW xc energy PS      =       4.62396584 Ry
      -> total E_H with PAW    =     374.77689775 Ry
      -> total E_XC with PAW   =     -70.91956309 Ry

     iteration #  6     ecut=    60.00 Ry     beta= 0.70
     Davidson diagonalization with overlap
     ethr =  4.10E-08,  avg # of iterations =  4.0

     negative rho (up, down):  2.241E-04 0.000E+00

     total cpu time spent up to now is       14.5 secs

          k = 0.0000 0.0000 0.0000     band energies (ev):

   -20.8350 -20.8246 -18.2085 -18.2030 -18.1048 -18.0991 -14.7022 -14.6917
   -14.6389 -14.6314 -12.8552 -12.8509 -11.2988 -11.2938 -10.4137 -10.4124
   -10.0430 -10.0328  -9.9489  -9.9396  -8.6815  -8.5495  -7.9528  -7.9522
    -7.8494  -7.8485  -5.9369  -5.9300  -5.8015  -5.7658

     occupation numbers 
     1.0000   1.0000   1.0000   1.0000   1.0000   1.0000   1.0000   1.0000
     1.0000   1.0000   1.0000   1.0000   1.0000   1.0000   1.0000   1.0000
     1.0000   1.0000   1.0000   1.0000   1.0000   1.0000   1.0000   1.0000
     1.0000   1.0000   1.0000   1.0000   1.0000   1.0000

     highest occupied level (ev):    -5.7658

!    total energy              =    -235.23704112 Ry

     total all-electron energy =      -928.406156 Ry
     estimated scf accuracy    <       0.00000272 Ry

     The total energy is the sum of the following terms:
     one-electron contribution =    -732.16682418 Ry
     hartree contribution      =     374.77286449 Ry
     xc contribution           =     -64.73899474 Ry
     ewald contribution        =     260.93222304 Ry
     scf correction            =       0.00680762 Ry
     one-center paw contrib.   =     -74.04311734 Ry
      -> PAW hartree energy AE =      10.02323365 Ry
      -> PAW hartree energy PS =     -10.01414493 Ry
      -> PAW xc energy AE      =     -10.80439570 Ry
      -> PAW xc energy PS      =       4.62486494 Ry
      -> total E_H with PAW    =     374.78195321 Ry
      -> total E_XC with PAW   =     -70.91852551 Ry

     iteration #  7     ecut=    60.00 Ry     beta= 0.70
     Davidson diagonalization with overlap
     ethr =  4.54E-09,  avg # of iterations =  5.0

     negative rho (up, down):  2.240E-04 0.000E+00

     total cpu time spent up to now is       15.4 secs

          k = 0.0000 0.0000 0.0000     band energies (ev):

   -20.8319 -20.8216 -18.2076 -18.2008 -18.1027 -18.0982 -14.7018 -14.6915
   -14.6389 -14.6306 -12.8546 -12.8497 -11.3001 -11.2949 -10.4116 -10.4116
   -10.0423 -10.0309  -9.9471  -9.9389  -8.6791  -8.5473  -7.9521  -7.9516
    -7.8491  -7.8474  -5.9348  -5.9286  -5.7993  -5.7641

     occupation numbers 
     1.0000   1.0000   1.0000   1.0000   1.0000   1.0000   1.0000   1.0000
     1.0000   1.0000   1.0000   1.0000   1.0000   1.0000   1.0000   1.0000
     1.0000   1.0000   1.0000   1.0000   1.0000   1.0000   1.0000   1.0000
     1.0000   1.0000   1.0000   1.0000   1.0000   1.0000

     highest occupied level (ev):    -5.7641

!    total energy              =    -235.23704190 Ry

     total all-electron energy =      -928.406157 Ry
     estimated scf accuracy    <       0.00000063 Ry

     The total energy is the sum of the following terms:
     one-electron contribution =    -732.15396784 Ry
     hartree contribution      =     374.77159749 Ry
     xc contribution           =     -64.73885056 Ry
     ewald contribution        =     260.93222304 Ry
     scf correction            =      -0.00502018 Ry
     one-center paw contrib.   =     -74.04302384 Ry
      -> PAW hartree energy AE =      10.02368509 Ry
      -> PAW hartree energy PS =     -10.01459729 Ry
      -> PAW xc energy AE      =     -10.80448957 Ry
      -> PAW xc energy PS      =       4.62496946 Ry
      -> total E_H with PAW    =     374.78068529 Ry
      -> total E_XC with PAW   =     -70.91837067 Ry

     iteration #  8     ecut=    60.00 Ry     beta= 0.70
     Davidson diagonalization with overlap
     ethr =  1.04E-09,  avg # of iterations =  4.0

     negative rho (up, down):  2.239E-04 0.000E+00

     total cpu time spent up to now is       16.1 secs

          k = 0.0000 0.0000 0.0000     band energies (ev):

   -20.8321 -20.8218 -18.2078 -18.2013 -18.1031 -18.0983 -14.7022 -14.6918
   -14.6391 -14.6311 -12.8547 -12.8499 -11.3004 -11.2953 -10.4122 -10.4118
   -10.0423 -10.0313  -9.9474  -9.9388  -8.6794  -8.5475  -7.9524  -7.9520
    -7.8493  -7.8478  -5.9352  -5.9288  -5.7997  -5.7644

     occupation numbers 
     1.0000   1.0000   1.0000   1.0000   1.0000   1.0000   1.0000   1.0000
     1.0000   1.0000   1.0000   1.0000   1.0000   1.0000   1.0000   1.0000
     1.0000   1.0000   1.0000   1.0000   1.0000   1.0000   1.0000   1.0000
     1.0000   1.0000   1.0000   1.0000   1.0000   1.0000

     highest occupied level (ev):    -5.7644

!    total energy              =    -235.23704195 Ry

     total all-electron energy =      -928.406157 Ry
     estimated scf accuracy    <       0.00000008 Ry

     The total energy is the sum of the following terms:
     one-electron contribution =    -732.15449309 Ry
     hartree contribution      =     374.76967550 Ry
     xc contribution           =     -64.73884078 Ry
     ewald contribution        =     260.93222304 Ry
     scf correction            =      -0.00265254 Ry
     one-center paw contrib.   =     -74.04295408 Ry
      -> PAW hartree energy AE =      10.02395694 Ry
      -> PAW hartree energy PS =     -10.01486966 Ry
      -> PAW xc energy AE      =     -10.80454649 Ry
      -> PAW xc energy PS      =       4.62503222 Ry
      -> total E_H with PAW    =     374.77876278 Ry
      -> total E_XC with PAW   =     -70.91835505 Ry

     iteration #  9     ecut=    60.00 Ry     beta= 0.70
     Davidson diagonalization with overlap
     ethr =  1.39E-10,  avg # of iterations =  5.0

     negative rho (up, down):  2.239E-04 0.000E+00

     total cpu time spent up to now is       16.9 secs

          k = 0.0000 0.0000 0.0000     band energies (ev):

   -20.8328 -20.8225 -18.2082 -18.2020 -18.1038 -18.0987 -14.7026 -14.6922
   -14.6394 -14.6316 -12.8549 -12.8503 -11.3004 -11.2953 -10.4130 -10.4123
   -10.0426 -10.0317  -9.9478  -9.9391  -8.6800  -8.5481  -7.9527  -7.9524
    -7.8495  -7.8483  -5.9358  -5.9294  -5.8004  -5.7649

     occupation numbers 
     1.0000   1.0000   1.0000   1.0000   1.0000   1.0000   1.0000   1.0000
     1.0000   1.0000   1.0000   1.0000   1.0000   1.0000   1.0000   1.0000
     1.0000   1.0000   1.0000   1.0000   1.0000   1.0000   1.0000   1.0000
     1.0000   1.0000   1.0000   1.0000   1.0000   1.0000

     highest occupied level (ev):    -5.7649

!    total energy              =    -235.23704198 Ry

     total all-electron energy =      -928.406157 Ry
     estimated scf accuracy    <       0.00000002 Ry

     The total energy is the sum of the following terms:
     one-electron contribution =    -732.15780204 Ry
     hartree contribution      =     374.76966418 Ry
     xc contribution           =     -64.73883865 Ry
     ewald contribution        =     260.93222304 Ry
     scf correction            =       0.00066764 Ry
     one-center paw contrib.   =     -74.04295615 Ry
      -> PAW hartree energy AE =      10.02407564 Ry
      -> PAW hartree energy PS =     -10.01498824 Ry
      -> PAW xc energy AE      =     -10.80457489 Ry
      -> PAW xc energy PS      =       4.62505965 Ry
      -> total E_H with PAW    =     374.77875159 Ry
      -> total E_XC with PAW   =     -70.91835390 Ry

     iteration # 10     ecut=    60.00 Ry     beta= 0.70
     Davidson diagonalization with overlap
     ethr =  3.53E-11,  avg # of iterations =  3.0

     negative rho (up, down):  2.239E-04 0.000E+00

     total cpu time spent up to now is       17.6 secs

     End of self-consistent calculation

          k = 0.0000 0.0000 0.0000 (178925 PWs)   bands (ev):

   -20.8328 -20.8225 -18.2082 -18.2019 -18.1037 -18.0987 -14.7026 -14.6922
   -14.6394 -14.6316 -12.8549 -12.8503 -11.3004 -11.2953 -10.4129 -10.4124
   -10.0426 -10.0317  -9.9478  -9.9391  -8.6800  -8.5481  -7.9527  -7.9524
    -7.8496  -7.8483  -5.9358  -5.9294  -5.8003  -5.7649

     occupation numbers 
     1.0000   1.0000   1.0000   1.0000   1.0000   1.0000   1.0000   1.0000
     1.0000   1.0000   1.0000   1.0000   1.0000   1.0000   1.0000   1.0000
     1.0000   1.0000   1.0000   1.0000   1.0000   1.0000   1.0000   1.0000
     1.0000   1.0000   1.0000   1.0000   1.0000   1.0000

     highest occupied level (ev):    -5.7649

!    total energy              =    -235.23704198 Ry

     total all-electron energy =      -928.406157 Ry
     estimated scf accuracy    <          6.9E-09 Ry

     The total energy is the sum of the following terms:
     one-electron contribution =    -732.15797313 Ry
     hartree contribution      =     374.77058474 Ry
     xc contribution           =     -64.73890421 Ry
     ewald contribution        =     260.93222304 Ry
     one-center paw contrib.   =     -74.04297242 Ry
      -> PAW hartree energy AE =      10.02437031 Ry
      -> PAW hartree energy PS =     -10.01528254 Ry
      -> PAW xc energy AE      =     -10.80464634 Ry
      -> PAW xc energy PS      =       4.62512784 Ry
      -> total E_H with PAW    =     374.77967252 Ry
      -> total E_XC with PAW   =     -70.91842271 Ry

     convergence has been achieved in  10 iterations

     Writing output data file ./tmp/ben2.save/
 
     init_run     :      5.23s CPU      6.90s WALL (       1 calls)
     electrons    :      7.31s CPU      8.83s WALL (       1 calls)

     Called by init_run:
     wfcinit      :      0.16s CPU      0.88s WALL (       1 calls)
     wfcinit:atom :      0.00s CPU      0.00s WALL (       1 calls)
     wfcinit:wfcr :      0.15s CPU      0.87s WALL (       1 calls)
     potinit      :      0.20s CPU      0.49s WALL (       1 calls)
     hinit0       :      0.18s CPU      0.62s WALL (       1 calls)

     Called by electrons:
     c_bands      :      3.03s CPU      3.35s WALL (      10 calls)
     sum_band     :      1.48s CPU      1.79s WALL (      10 calls)
     v_of_rho     :      1.42s CPU      1.66s WALL (      11 calls)
     v_h          :      0.12s CPU      0.13s WALL (      11 calls)
     v_xc         :      1.29s CPU      1.53s WALL (      11 calls)
     newd         :      0.74s CPU      1.14s WALL (      11 calls)
     PAW_pot      :      0.20s CPU      0.33s WALL (      11 calls)
     mix_rho      :      0.25s CPU      0.34s WALL (      10 calls)

     Called by c_bands:
     init_us_2    :      0.03s CPU      0.04s WALL (      21 calls)
     cegterg      :      2.99s CPU      3.29s WALL (      10 calls)

     Called by sum_band:
     sum_band:wei :      0.00s CPU      0.00s WALL (      10 calls)
     sum_band:loo :      0.41s CPU      0.42s WALL (      10 calls)
     sum_band:buf :      0.00s CPU      0.00s WALL (      10 calls)
     sum_band:ini :      0.02s CPU      0.03s WALL (      10 calls)
     sum_band:cal :      0.04s CPU      0.05s WALL (      10 calls)
     sum_band:bec :      0.00s CPU      0.00s WALL (      10 calls)
     addusdens    :      0.91s CPU      1.20s WALL (      10 calls)
     addusd:skk   :      0.11s CPU      0.14s WALL (      20 calls)
     addusd:dgemm :      0.51s CPU      0.76s WALL (      20 calls)
     addusd:qvan2 :      0.21s CPU      0.22s WALL (      20 calls)

     Called by *egterg:
     cdiaghg      :      0.06s CPU      0.89s WALL (      47 calls)
     cegterg:over :      0.10s CPU      0.10s WALL (      37 calls)
     cegterg:upda :      0.04s CPU      0.04s WALL (      37 calls)
     cegterg:last :      0.11s CPU      0.11s WALL (      28 calls)
     h_psi        :      2.55s CPU      2.71s WALL (      48 calls)
     s_psi        :      0.18s CPU      0.18s WALL (      48 calls)
     g_psi        :      0.00s CPU      0.00s WALL (      37 calls)

     Called by h_psi:
     h_psi:calbec :      0.18s CPU      0.26s WALL (      48 calls)
     vloc_psi     :      2.18s CPU      2.24s WALL (      48 calls)
     add_vuspsi   :      0.18s CPU      0.20s WALL (      48 calls)

     General routines
     calbec       :      0.22s CPU      0.30s WALL (      58 calls)
     fft          :      1.17s CPU      1.79s WALL (     141 calls)
     ffts         :      0.07s CPU      0.09s WALL (      21 calls)
     fftw         :      2.35s CPU      2.41s WALL (    2354 calls)
     interpolate  :      0.14s CPU      0.16s WALL (      11 calls)
 
     Parallel routines
     fft_scatt_xy :      0.27s CPU      0.27s WALL (    2516 calls)
     fft_scatt_yz :      2.33s CPU      2.46s WALL (    2516 calls)

     PAW routines
     PAW_pot      :      0.20s CPU      0.33s WALL (      11 calls)
 
     PWSCF        :     13.46s CPU     18.91s WALL

 
   This run was terminated on:   4:36:38  23Dec2021            

=------------------------------------------------------------------------------=
   JOB DONE.
=------------------------------------------------------------------------------=
