
     Program PWSCF v.6.6 starts on 22Dec2021 at 11:23:13 

     This program is part of the open-source Quantum ESPRESSO suite
     for quantum simulation of materials; please cite
         "P. Giannozzi et al., J. Phys.:Condens. Matter 21 395502 (2009);
         "P. Giannozzi et al., J. Phys.:Condens. Matter 29 465901 (2017);
          URL http://www.quantum-espresso.org", 
     in publications or presentations arising from this work. More details at
     http://www.quantum-espresso.org/quote

     Parallel version (MPI & OpenMP), running on     128 processor cores
     Number of MPI processes:               128
     Threads/MPI process:                     1

     MPI processes distributed on     1 nodes
     R & G space division:  proc/nbgrp/npool/nimage =     128
     Fft bands division:     nmany     =       1
     Waiting for input...
     Reading input from standard input

     Current dimensions of program PWSCF are:
     Max number of different atomic species (ntypx) = 10
     Max number of k-points (npk) =  40000
     Max angular momentum in pseudopotentials (lmaxx) =  3
     Message from routine iosys:
     restart disabled: needed files not found
     file C.pbe-n-kjpaw_psl.1.0.0.UPF: wavefunction(s)  2S 2P renormalized
     file H.pbe-kjpaw_psl.1.0.0.UPF: wavefunction(s)  1S renormalized

     Subspace diagonalization in iterative solution of the eigenvalue problem:
     a serial algorithm will be used

 
     Parallelization info
     --------------------
     sticks:   dense  smooth     PW     G-vecs:    dense   smooth      PW
     Min         299     119     29                73597    18607    2317
     Max         300     120     30                73606    18622    2334
     Sum       38393   15329   3833              9421241  2382657  297901
 


     bravais-lattice index     =            0
     lattice parameter (alat)  =      28.3459  a.u.
     unit-cell volume          =   37959.3815 (a.u.)^3
     number of atoms/cell      =           24
     number of atomic types    =            2
     number of electrons       =        60.00
     number of Kohn-Sham states=           30
     kinetic-energy cutoff     =      60.0000  Ry
     charge density cutoff     =     600.0000  Ry
     convergence threshold     =      1.0E-08
     mixing beta               =       0.7000
     number of iterations used =            8  plain     mixing
     Exchange-correlation= SLA PW PBX PBC
                           (   1   4   3   4   0   0   0)

     celldm(1)=  28.345892  celldm(2)=   0.000000  celldm(3)=   0.000000
     celldm(4)=   0.000000  celldm(5)=   0.000000  celldm(6)=   0.000000

     crystal axes: (cart. coord. in units of alat)
               a(1) = (   1.000000   0.000000   0.000000 )  
               a(2) = (   0.000000   1.000000   0.000000 )  
               a(3) = (   0.000000   0.000000   1.666667 )  

     reciprocal axes: (cart. coord. in units 2 pi/alat)
               b(1) = (  1.000000  0.000000  0.000000 )  
               b(2) = (  0.000000  1.000000  0.000000 )  
               b(3) = (  0.000000  0.000000  0.600000 )  


     PseudoPot. # 1 for C  read from file:
     /home/k0151/k015124/src/pseudo/C.pbe-n-kjpaw_psl.1.0.0.UPF
     MD5 check sum: 5f16ad9a65e90284d1d834d4ab3b0f7d
     Pseudo is Projector augmented-wave + core cor, Zval =  4.0
     Generated using "atomic" code by A. Dal Corso v.6.3
     Shape of augmentation charge: PSQ
     Using radial grid of 1073 points,  4 beta functions with: 
                l(1) =   0
                l(2) =   0
                l(3) =   1
                l(4) =   1
     Q(r) pseudized with 0 coefficients 


     PseudoPot. # 2 for H  read from file:
     /home/k0151/k015124/src/pseudo/H.pbe-kjpaw_psl.1.0.0.UPF
     MD5 check sum: d81a744832360e4a8af0b0b5b123bc2a
     Pseudo is Projector augmented-wave, Zval =  1.0
     Generated using "atomic" code by A. Dal Corso v.6.3MaX
     Shape of augmentation charge: PSQ
     Using radial grid of  929 points,  2 beta functions with: 
                l(1) =   0
                l(2) =   0
     Q(r) pseudized with 0 coefficients 


     atomic species   valence    mass     pseudopotential
        C              4.00    12.01100     C ( 1.00)
        H              1.00     1.00800     H ( 1.00)

     No symmetry found


                                    s                        frac. trans.

      isym =  1     identity                                     

 cryst.   s( 1) = (     1          0          0      )
                  (     0          1          0      )
                  (     0          0          1      )

 cart.    s( 1) = (  1.0000000  0.0000000  0.0000000 )
                  (  0.0000000  1.0000000  0.0000000 )
                  (  0.0000000  0.0000000  1.0000000 )


   Cartesian axes

     site n.     atom                  positions (alat units)
         1           C   tau(   1) = (   0.5926667   0.5000000   0.8333333  )
         2           C   tau(   2) = (   0.5466667   0.4200000   0.8333333  )
         3           C   tau(   3) = (   0.4533333   0.4200000   0.8333333  )
         4           C   tau(   4) = (   0.4073333   0.5000000   0.8333333  )
         5           C   tau(   5) = (   0.4533333   0.5800000   0.8333333  )
         6           C   tau(   6) = (   0.5466667   0.5800000   0.8333333  )
         7           H   tau(   7) = (   0.6593333   0.5000000   0.8333333  )
         8           H   tau(   8) = (   0.5800000   0.3620000   0.8333333  )
         9           H   tau(   9) = (   0.4200000   0.3620000   0.8333333  )
        10           H   tau(  10) = (   0.3406667   0.5000000   0.8333333  )
        11           H   tau(  11) = (   0.4200000   0.6380000   0.8333333  )
        12           H   tau(  12) = (   0.5800000   0.6380000   0.8333333  )
        13           C   tau(  13) = (   0.7133333   0.5466667   1.1666667  )
        14           C   tau(  14) = (   0.7133333   0.4533333   1.1666667  )
        15           C   tau(  15) = (   0.6333333   0.4073333   1.1666667  )
        16           C   tau(  16) = (   0.5533333   0.4533333   1.1666667  )
        17           C   tau(  17) = (   0.5533333   0.5466667   1.1666667  )
        18           C   tau(  18) = (   0.6333333   0.5926667   1.1666667  )
        19           H   tau(  19) = (   0.7713333   0.5800000   1.1666667  )
        20           H   tau(  20) = (   0.7713333   0.4200000   1.1666667  )
        21           H   tau(  21) = (   0.6333333   0.3406667   1.1666667  )
        22           H   tau(  22) = (   0.4953333   0.4206667   1.1666667  )
        23           H   tau(  23) = (   0.4953333   0.5800000   1.1666667  )
        24           H   tau(  24) = (   0.6333333   0.6593333   1.1666667  )

   Crystallographic axes

     site n.     atom                  positions (cryst. coord.)
         1           C   tau(   1) = (  0.5926667  0.5000000  0.5000000  )
         2           C   tau(   2) = (  0.5466667  0.4200000  0.5000000  )
         3           C   tau(   3) = (  0.4533333  0.4200000  0.5000000  )
         4           C   tau(   4) = (  0.4073333  0.5000000  0.5000000  )
         5           C   tau(   5) = (  0.4533333  0.5800000  0.5000000  )
         6           C   tau(   6) = (  0.5466667  0.5800000  0.5000000  )
         7           H   tau(   7) = (  0.6593333  0.5000000  0.5000000  )
         8           H   tau(   8) = (  0.5800000  0.3620000  0.5000000  )
         9           H   tau(   9) = (  0.4200000  0.3620000  0.5000000  )
        10           H   tau(  10) = (  0.3406667  0.5000000  0.5000000  )
        11           H   tau(  11) = (  0.4200000  0.6380000  0.5000000  )
        12           H   tau(  12) = (  0.5800000  0.6380000  0.5000000  )
        13           C   tau(  13) = (  0.7133333  0.5466667  0.7000000  )
        14           C   tau(  14) = (  0.7133333  0.4533333  0.7000000  )
        15           C   tau(  15) = (  0.6333333  0.4073333  0.7000000  )
        16           C   tau(  16) = (  0.5533333  0.4533333  0.7000000  )
        17           C   tau(  17) = (  0.5533333  0.5466667  0.7000000  )
        18           C   tau(  18) = (  0.6333333  0.5926667  0.7000000  )
        19           H   tau(  19) = (  0.7713333  0.5800000  0.7000000  )
        20           H   tau(  20) = (  0.7713333  0.4200000  0.7000000  )
        21           H   tau(  21) = (  0.6333333  0.3406667  0.7000000  )
        22           H   tau(  22) = (  0.4953333  0.4206667  0.7000000  )
        23           H   tau(  23) = (  0.4953333  0.5800000  0.7000000  )
        24           H   tau(  24) = (  0.6333333  0.6593333  0.7000000  )

     number of k points=     1
                       cart. coord. in units 2pi/alat
        k(    1) = (   0.0000000   0.0000000   0.0000000), wk =   2.0000000

                       cryst. coord.
        k(    1) = (   0.0000000   0.0000000   0.0000000), wk =   2.0000000

     Dense  grid:  9421241 G-vectors     FFT dimensions: ( 225, 225, 375)

     Smooth grid:  2382657 G-vectors     FFT dimensions: ( 144, 144, 240)

     Dynamical RAM for                 wfc:       1.07 MB

     Dynamical RAM for     wfc (w. buffer):       1.07 MB

     Dynamical RAM for           str. fact:       2.25 MB

     Dynamical RAM for           local pot:       0.00 MB

     Dynamical RAM for          nlocal pot:       4.26 MB

     Dynamical RAM for                qrad:       1.12 MB

     Dynamical RAM for          rho,v,vnew:       6.85 MB

     Dynamical RAM for               rhoin:       2.28 MB

     Dynamical RAM for            rho*nmix:      17.97 MB

     Dynamical RAM for           G-vectors:       4.35 MB

     Dynamical RAM for          h,s,v(r/c):       0.16 MB

     Dynamical RAM for          <psi|beta>:       0.05 MB

     Dynamical RAM for                 psi:       2.13 MB

     Dynamical RAM for                hpsi:       2.13 MB

     Dynamical RAM for                spsi:       2.13 MB

     Dynamical RAM for      wfcinit/wfcrot:       2.15 MB

     Dynamical RAM for           addusdens:      61.77 MB

     Estimated static dynamical RAM per process >      49.31 MB

     Estimated max dynamical RAM per process >     143.76 MB

     Estimated total dynamical RAM >      17.97 GB
     Cannot read rho : file not found

     Initial potential from superposition of free atoms

     starting charge   59.99939, renormalised to   60.00000

     negative rho (up, down):  2.005E-04 0.000E+00
     Message from routine qexsd_readschema :
     xml data file ./tmp/ben2_h5.save/data-file-schema.xml not found
     Cannot read wfcs: file not found
     Starting wfcs are   60 randomized atomic wfcs
     Checking if some PAW data can be deallocated... 
       PAW data deallocated on   62 nodes for type:  1
       PAW data deallocated on   66 nodes for type:  2

     total cpu time spent up to now is       13.7 secs

     Self-consistent Calculation

     iteration #  1     ecut=    60.00 Ry     beta= 0.70
     Davidson diagonalization with overlap
     ethr =  1.00E-05,  avg # of iterations =  7.0

     negative rho (up, down):  3.224E-04 0.000E+00

     total cpu time spent up to now is       15.4 secs

          k = 0.0000 0.0000 0.0000     band energies (ev):

   -27.0670 -27.0639 -24.3857 -24.3851 -24.2232 -24.2132 -20.7584 -20.7530
   -20.6657 -20.6561 -18.6037 -18.5936 -17.0721 -17.0677 -16.8469 -16.8339
   -16.0451 -16.0400 -15.9101 -15.8990 -14.1206 -14.1046 -14.0014 -14.0012
   -13.6516 -13.6291 -11.0192 -11.0179 -10.8784 -10.8734

     occupation numbers 
     1.0000   1.0000   1.0000   1.0000   1.0000   1.0000   1.0000   1.0000
     1.0000   1.0000   1.0000   1.0000   1.0000   1.0000   1.0000   1.0000
     1.0000   1.0000   1.0000   1.0000   1.0000   1.0000   1.0000   1.0000
     1.0000   1.0000   1.0000   1.0000   1.0000   1.0000

     highest occupied level (ev):   -10.8734

!    total energy              =    -234.40503226 Ry

     total all-electron energy =      -927.574147 Ry
     estimated scf accuracy    <       3.41135138 Ry

     The total energy is the sum of the following terms:
     one-electron contribution =    -859.06777049 Ry
     hartree contribution      =     435.85034147 Ry
     xc contribution           =     -65.27465815 Ry
     ewald contribution        =     316.49987253 Ry
     scf correction            =      11.87553401 Ry
     one-center paw contrib.   =     -74.28835162 Ry
      -> PAW hartree energy AE =       9.24204942 Ry
      -> PAW hartree energy PS =      -9.23107934 Ry
      -> PAW xc energy AE      =     -10.64498076 Ry
      -> PAW xc energy PS      =       4.44303365 Ry
      -> total E_H with PAW    =     435.86131155 Ry
      -> total E_XC with PAW   =     -71.47660525 Ry

     iteration #  2     ecut=    60.00 Ry     beta= 0.70
     Davidson diagonalization with overlap
     ethr =  5.69E-03,  avg # of iterations =  2.0

     negative rho (up, down):  3.685E-04 0.000E+00

     total cpu time spent up to now is       16.7 secs

          k = 0.0000 0.0000 0.0000     band energies (ev):

   -19.0974 -19.0936 -16.8655 -16.8526 -16.8159 -16.8111 -13.7629 -13.7617
   -13.7091 -13.6977 -11.8810 -11.8764 -11.0032 -10.9968  -8.8614  -8.8475
    -8.8196  -8.8155  -8.7783  -8.7673  -7.2326  -7.1621  -6.8356  -6.8294
    -6.7355  -6.7324  -4.5762  -4.5453  -4.5012  -4.4963

     occupation numbers 
     1.0000   1.0000   1.0000   1.0000   1.0000   1.0000   1.0000   1.0000
     1.0000   1.0000   1.0000   1.0000   1.0000   1.0000   1.0000   1.0000
     1.0000   1.0000   1.0000   1.0000   1.0000   1.0000   1.0000   1.0000
     1.0000   1.0000   1.0000   1.0000   1.0000   1.0000

     highest occupied level (ev):    -4.4963

!    total energy              =    -235.14291131 Ry

     total all-electron energy =      -928.312026 Ry
     estimated scf accuracy    <       0.50317568 Ry

     The total energy is the sum of the following terms:
     one-electron contribution =    -835.13508781 Ry
     hartree contribution      =     428.06320150 Ry
     xc contribution           =     -64.52621916 Ry
     ewald contribution        =     316.49987253 Ry
     scf correction            =      -5.92097117 Ry
     one-center paw contrib.   =     -74.12370721 Ry
      -> PAW hartree energy AE =       9.32234763 Ry
      -> PAW hartree energy PS =      -9.31281116 Ry
      -> PAW xc energy AE      =     -10.64613569 Ry
      -> PAW xc energy PS      =       4.45960723 Ry
      -> total E_H with PAW    =     428.07273798 Ry
      -> total E_XC with PAW   =     -70.71274761 Ry

     iteration #  3     ecut=    60.00 Ry     beta= 0.70
     Davidson diagonalization with overlap
     ethr =  8.39E-04,  avg # of iterations =  2.0

     negative rho (up, down):  3.430E-04 0.000E+00

     total cpu time spent up to now is       17.9 secs

          k = 0.0000 0.0000 0.0000     band energies (ev):

   -21.4145 -21.4120 -18.7205 -18.7187 -18.6183 -18.6161 -15.1674 -15.1665
   -15.1065 -15.1017 -13.3692 -13.3661 -11.7318 -11.7262 -10.9184 -10.9172
   -10.5741 -10.5728 -10.4817 -10.4813  -9.1201  -9.0682  -8.4562  -8.4510
    -8.3531  -8.3483  -6.3671  -6.3620  -6.2698  -6.2678

     occupation numbers 
     1.0000   1.0000   1.0000   1.0000   1.0000   1.0000   1.0000   1.0000
     1.0000   1.0000   1.0000   1.0000   1.0000   1.0000   1.0000   1.0000
     1.0000   1.0000   1.0000   1.0000   1.0000   1.0000   1.0000   1.0000
     1.0000   1.0000   1.0000   1.0000   1.0000   1.0000

     highest occupied level (ev):    -6.2678

!    total energy              =    -235.23450086 Ry

     total all-electron energy =      -928.403615 Ry
     estimated scf accuracy    <       0.01352006 Ry

     The total energy is the sum of the following terms:
     one-electron contribution =    -842.98091833 Ry
     hartree contribution      =     429.32766157 Ry
     xc contribution           =     -64.71525756 Ry
     ewald contribution        =     316.49987253 Ry
     scf correction            =       0.68990110 Ry
     one-center paw contrib.   =     -74.05576017 Ry
      -> PAW hartree energy AE =       9.86235947 Ry
      -> PAW hartree energy PS =      -9.85321903 Ry
      -> PAW xc energy AE      =     -10.76780606 Ry
      -> PAW xc energy PS      =       4.58725746 Ry
      -> total E_H with PAW    =     429.33680201 Ry
      -> total E_XC with PAW   =     -70.89580616 Ry

     iteration #  4     ecut=    60.00 Ry     beta= 0.70
     Davidson diagonalization with overlap
     ethr =  2.25E-05,  avg # of iterations =  2.0

     negative rho (up, down):  3.465E-04 0.000E+00

     total cpu time spent up to now is       19.0 secs

          k = 0.0000 0.0000 0.0000     band energies (ev):

   -21.0716 -21.0696 -18.4425 -18.4406 -18.3329 -18.3304 -14.9214 -14.9206
   -14.8629 -14.8566 -13.0731 -13.0686 -11.5039 -11.4975 -10.6557 -10.6547
   -10.2647 -10.2601 -10.1629 -10.1627  -8.8693  -8.8160  -8.1793  -8.1730
    -8.0744  -8.0717  -6.1426  -6.1341  -6.0354  -6.0334

     occupation numbers 
     1.0000   1.0000   1.0000   1.0000   1.0000   1.0000   1.0000   1.0000
     1.0000   1.0000   1.0000   1.0000   1.0000   1.0000   1.0000   1.0000
     1.0000   1.0000   1.0000   1.0000   1.0000   1.0000   1.0000   1.0000
     1.0000   1.0000   1.0000   1.0000   1.0000   1.0000

     highest occupied level (ev):    -6.0334

!    total energy              =    -235.23611528 Ry

     total all-electron energy =      -928.405230 Ry
     estimated scf accuracy    <       0.00052096 Ry

     The total energy is the sum of the following terms:
     one-electron contribution =    -842.76671865 Ry
     hartree contribution      =     429.61163616 Ry
     xc contribution           =     -64.74157146 Ry
     ewald contribution        =     316.49987253 Ry
     scf correction            =       0.20652286 Ry
     one-center paw contrib.   =     -74.04585672 Ry
      -> PAW hartree energy AE =       9.98758285 Ry
      -> PAW hartree energy PS =      -9.97848275 Ry
      -> PAW xc energy AE      =     -10.79624311 Ry
      -> PAW xc energy PS      =       4.61650763 Ry
      -> total E_H with PAW    =     429.62073625 Ry
      -> total E_XC with PAW   =     -70.92130693 Ry

     iteration #  5     ecut=    60.00 Ry     beta= 0.70
     Davidson diagonalization with overlap
     ethr =  8.68E-07,  avg # of iterations =  3.0

     negative rho (up, down):  3.478E-04 0.000E+00

     total cpu time spent up to now is       20.3 secs

          k = 0.0000 0.0000 0.0000     band energies (ev):

   -20.9871 -20.9852 -18.3692 -18.3680 -18.2663 -18.2644 -14.8649 -14.8647
   -14.8065 -14.8005 -13.0192 -13.0153 -11.4719 -11.4658 -10.5781 -10.5778
   -10.2022 -10.1981 -10.1066 -10.1056  -8.7996  -8.7457  -8.1211  -8.1155
    -8.0169  -8.0137  -6.0743  -6.0659  -5.9722  -5.9705

     occupation numbers 
     1.0000   1.0000   1.0000   1.0000   1.0000   1.0000   1.0000   1.0000
     1.0000   1.0000   1.0000   1.0000   1.0000   1.0000   1.0000   1.0000
     1.0000   1.0000   1.0000   1.0000   1.0000   1.0000   1.0000   1.0000
     1.0000   1.0000   1.0000   1.0000   1.0000   1.0000

     highest occupied level (ev):    -5.9705

!    total energy              =    -235.23630594 Ry

     total all-electron energy =      -928.405421 Ry
     estimated scf accuracy    <       0.00002561 Ry

     The total energy is the sum of the following terms:
     one-electron contribution =    -842.52934782 Ry
     hartree contribution      =     429.57760761 Ry
     xc contribution           =     -64.73696755 Ry
     ewald contribution        =     316.49987253 Ry
     scf correction            =      -0.00432339 Ry
     one-center paw contrib.   =     -74.04314731 Ry
      -> PAW hartree energy AE =      10.02173434 Ry
      -> PAW hartree energy PS =     -10.01264770 Ry
      -> PAW xc energy AE      =     -10.80399292 Ry
      -> PAW xc energy PS      =       4.62448668 Ry
      -> total E_H with PAW    =     429.58669425 Ry
      -> total E_XC with PAW   =     -70.91647379 Ry

     iteration #  6     ecut=    60.00 Ry     beta= 0.70
     Davidson diagonalization with overlap
     ethr =  4.27E-08,  avg # of iterations =  3.0

     negative rho (up, down):  3.474E-04 0.000E+00

     total cpu time spent up to now is       21.4 secs

          k = 0.0000 0.0000 0.0000     band energies (ev):

   -21.0011 -20.9992 -18.3775 -18.3763 -18.2748 -18.2725 -14.8695 -14.8691
   -14.8108 -14.8046 -13.0278 -13.0237 -11.4733 -11.4671 -10.5852 -10.5846
   -10.2127 -10.2085 -10.1171 -10.1165  -8.8081  -8.7542  -8.1283  -8.1225
    -8.0237  -8.0207  -6.0814  -6.0729  -5.9797  -5.9776

     occupation numbers 
     1.0000   1.0000   1.0000   1.0000   1.0000   1.0000   1.0000   1.0000
     1.0000   1.0000   1.0000   1.0000   1.0000   1.0000   1.0000   1.0000
     1.0000   1.0000   1.0000   1.0000   1.0000   1.0000   1.0000   1.0000
     1.0000   1.0000   1.0000   1.0000   1.0000   1.0000

     highest occupied level (ev):    -5.9776

!    total energy              =    -235.23631094 Ry

     total all-electron energy =      -928.405426 Ry
     estimated scf accuracy    <       0.00000279 Ry

     The total energy is the sum of the following terms:
     one-electron contribution =    -842.54971860 Ry
     hartree contribution      =     429.58438961 Ry
     xc contribution           =     -64.73587317 Ry
     ewald contribution        =     316.49987253 Ry
     scf correction            =       0.00805864 Ry
     one-center paw contrib.   =     -74.04303996 Ry
      -> PAW hartree energy AE =      10.02517202 Ry
      -> PAW hartree energy PS =     -10.01608555 Ry
      -> PAW xc energy AE      =     -10.80478070 Ry
      -> PAW xc energy PS      =       4.62528171 Ry
      -> total E_H with PAW    =     429.59347608 Ry
      -> total E_XC with PAW   =     -70.91537216 Ry

     iteration #  7     ecut=    60.00 Ry     beta= 0.70
     Davidson diagonalization with overlap
     ethr =  4.65E-09,  avg # of iterations =  4.0

     negative rho (up, down):  3.473E-04 0.000E+00

     total cpu time spent up to now is       22.7 secs

          k = 0.0000 0.0000 0.0000     band energies (ev):

   -20.9970 -20.9951 -18.3755 -18.3744 -18.2726 -18.2705 -14.8689 -14.8687
   -14.8103 -14.8042 -13.0265 -13.0226 -11.4748 -11.4687 -10.5830 -10.5827
   -10.2110 -10.2070 -10.1154 -10.1145  -8.8051  -8.7513  -8.1273  -8.1217
    -8.0229  -8.0197  -6.0791  -6.0708  -5.9771  -5.9752

     occupation numbers 
     1.0000   1.0000   1.0000   1.0000   1.0000   1.0000   1.0000   1.0000
     1.0000   1.0000   1.0000   1.0000   1.0000   1.0000   1.0000   1.0000
     1.0000   1.0000   1.0000   1.0000   1.0000   1.0000   1.0000   1.0000
     1.0000   1.0000   1.0000   1.0000   1.0000   1.0000

     highest occupied level (ev):    -5.9752

!    total energy              =    -235.23631191 Ry

     total all-electron energy =      -928.405427 Ry
     estimated scf accuracy    <       0.00000030 Ry

     The total energy is the sum of the following terms:
     one-electron contribution =    -842.53425617 Ry
     hartree contribution      =     429.58217991 Ry
     xc contribution           =     -64.73588174 Ry
     ewald contribution        =     316.49987253 Ry
     scf correction            =      -0.00532547 Ry
     one-center paw contrib.   =     -74.04290096 Ry
      -> PAW hartree energy AE =      10.02565800 Ry
      -> PAW hartree energy PS =     -10.01657272 Ry
      -> PAW xc energy AE      =     -10.80487960 Ry
      -> PAW xc energy PS      =       4.62539447 Ry
      -> total E_H with PAW    =     429.59126520 Ry
      -> total E_XC with PAW   =     -70.91536686 Ry

     iteration #  8     ecut=    60.00 Ry     beta= 0.70
     Davidson diagonalization with overlap
     ethr =  5.01E-10,  avg # of iterations =  4.0

     negative rho (up, down):  3.472E-04 0.000E+00

     total cpu time spent up to now is       23.9 secs

          k = 0.0000 0.0000 0.0000     band energies (ev):

   -20.9978 -20.9959 -18.3762 -18.3750 -18.2732 -18.2711 -14.8694 -14.8691
   -14.8107 -14.8046 -13.0268 -13.0228 -11.4748 -11.4687 -10.5839 -10.5835
   -10.2114 -10.2073 -10.1157 -10.1149  -8.8059  -8.7520  -8.1278  -8.1221
    -8.0232  -8.0202  -6.0798  -6.0715  -5.9778  -5.9758

     occupation numbers 
     1.0000   1.0000   1.0000   1.0000   1.0000   1.0000   1.0000   1.0000
     1.0000   1.0000   1.0000   1.0000   1.0000   1.0000   1.0000   1.0000
     1.0000   1.0000   1.0000   1.0000   1.0000   1.0000   1.0000   1.0000
     1.0000   1.0000   1.0000   1.0000   1.0000   1.0000

     highest occupied level (ev):    -5.9758

!    total energy              =    -235.23631194 Ry

     total all-electron energy =      -928.405427 Ry
     estimated scf accuracy    <       0.00000006 Ry

     The total energy is the sum of the following terms:
     one-electron contribution =    -842.53701918 Ry
     hartree contribution      =     429.58109658 Ry
     xc contribution           =     -64.73587342 Ry
     ewald contribution        =     316.49987253 Ry
     scf correction            =      -0.00152373 Ry
     one-center paw contrib.   =     -74.04286472 Ry
      -> PAW hartree energy AE =      10.02600425 Ry
      -> PAW hartree energy PS =     -10.01691904 Ry
      -> PAW xc energy AE      =     -10.80495800 Ry
      -> PAW xc energy PS      =       4.62547454 Ry
      -> total E_H with PAW    =     429.59018179 Ry
      -> total E_XC with PAW   =     -70.91535687 Ry

     iteration #  9     ecut=    60.00 Ry     beta= 0.70
     Davidson diagonalization with overlap
     ethr =  1.01E-10,  avg # of iterations =  4.0

     negative rho (up, down):  3.472E-04 0.000E+00

     total cpu time spent up to now is       25.0 secs

     End of self-consistent calculation

          k = 0.0000 0.0000 0.0000 (297901 PWs)   bands (ev):

   -20.9982 -20.9963 -18.3765 -18.3754 -18.2735 -18.2714 -14.8696 -14.8693
   -14.8109 -14.8048 -13.0269 -13.0230 -11.4748 -11.4687 -10.5842 -10.5839
   -10.2116 -10.2075 -10.1159 -10.1151  -8.8062  -8.7523  -8.1280  -8.1223
    -8.0234  -8.0204  -6.0801  -6.0718  -5.9781  -5.9761

     occupation numbers 
     1.0000   1.0000   1.0000   1.0000   1.0000   1.0000   1.0000   1.0000
     1.0000   1.0000   1.0000   1.0000   1.0000   1.0000   1.0000   1.0000
     1.0000   1.0000   1.0000   1.0000   1.0000   1.0000   1.0000   1.0000
     1.0000   1.0000   1.0000   1.0000   1.0000   1.0000

     highest occupied level (ev):    -5.9761

!    total energy              =    -235.23631195 Ry

     total all-electron energy =      -928.405427 Ry
     estimated scf accuracy    <          8.0E-09 Ry

     The total energy is the sum of the following terms:
     one-electron contribution =    -842.53912137 Ry
     hartree contribution      =     429.58175134 Ry
     xc contribution           =     -64.73592800 Ry
     ewald contribution        =     316.49987253 Ry
     one-center paw contrib.   =     -74.04288645 Ry
      -> PAW hartree energy AE =      10.02630614 Ry
      -> PAW hartree energy PS =     -10.01722055 Ry
      -> PAW xc energy AE      =     -10.80503095 Ry
      -> PAW xc energy PS      =       4.62554409 Ry
      -> total E_H with PAW    =     429.59083692 Ry
      -> total E_XC with PAW   =     -70.91541486 Ry

     convergence has been achieved in   9 iterations

     Writing output data file ./tmp/ben2_h5.save/
 
     init_run     :     10.29s CPU     12.03s WALL (       1 calls)
     electrons    :     10.14s CPU     11.90s WALL (       1 calls)

     Called by init_run:
     wfcinit      :      0.19s CPU      0.75s WALL (       1 calls)
     wfcinit:atom :      0.00s CPU      0.00s WALL (       1 calls)
     wfcinit:wfcr :      0.18s CPU      0.74s WALL (       1 calls)
     potinit      :      0.44s CPU      0.67s WALL (       1 calls)
     hinit0       :      0.55s CPU      1.13s WALL (       1 calls)

     Called by electrons:
     c_bands      :      3.40s CPU      3.61s WALL (       9 calls)
     sum_band     :      2.30s CPU      2.80s WALL (       9 calls)
     v_of_rho     :      2.30s CPU      2.45s WALL (      10 calls)
     v_h          :      0.21s CPU      0.22s WALL (      10 calls)
     v_xc         :      2.09s CPU      2.22s WALL (      10 calls)
     newd         :      1.36s CPU      1.99s WALL (      10 calls)
     PAW_pot      :      0.18s CPU      0.38s WALL (      10 calls)
     mix_rho      :      0.41s CPU      0.46s WALL (       9 calls)

     Called by c_bands:
     init_us_2    :      0.05s CPU      0.07s WALL (      19 calls)
     cegterg      :      3.33s CPU      3.53s WALL (       9 calls)

     Called by sum_band:
     sum_band:wei :      0.00s CPU      0.00s WALL (       9 calls)
     sum_band:loo :      0.42s CPU      0.44s WALL (       9 calls)
     sum_band:buf :      0.00s CPU      0.00s WALL (       9 calls)
     sum_band:ini :      0.03s CPU      0.03s WALL (       9 calls)
     sum_band:cal :      0.06s CPU      0.06s WALL (       9 calls)
     sum_band:bec :      0.00s CPU      0.00s WALL (       9 calls)
     addusdens    :      1.61s CPU      2.06s WALL (       9 calls)
     addusd:skk   :      0.15s CPU      0.21s WALL (      18 calls)
     addusd:dgemm :      0.82s CPU      1.19s WALL (      18 calls)
     addusd:qvan2 :      0.52s CPU      0.52s WALL (      18 calls)

     Called by *egterg:
     cdiaghg      :      0.06s CPU      0.64s WALL (      40 calls)
     cegterg:over :      0.15s CPU      0.15s WALL (      31 calls)
     cegterg:upda :      0.06s CPU      0.07s WALL (      31 calls)
     cegterg:last :      0.20s CPU      0.20s WALL (      24 calls)
     h_psi        :      2.67s CPU      2.80s WALL (      41 calls)
     s_psi        :      0.25s CPU      0.25s WALL (      41 calls)
     g_psi        :      0.00s CPU      0.00s WALL (      31 calls)

     Called by h_psi:
     h_psi:calbec :      0.23s CPU      0.29s WALL (      41 calls)
     vloc_psi     :      2.14s CPU      2.19s WALL (      41 calls)
     add_vuspsi   :      0.28s CPU      0.29s WALL (      41 calls)

     General routines
     calbec       :      0.28s CPU      0.35s WALL (      50 calls)
     fft          :      1.96s CPU      2.62s WALL (     128 calls)
     ffts         :      0.07s CPU      0.07s WALL (      19 calls)
     fftw         :      2.30s CPU      2.35s WALL (    2178 calls)
     interpolate  :      0.20s CPU      0.22s WALL (      10 calls)
 
     Parallel routines
     fft_scatt_xy :      0.40s CPU      0.41s WALL (    2325 calls)
     fft_scatt_yz :      2.62s CPU      2.74s WALL (    2325 calls)

     PAW routines
     PAW_pot      :      0.18s CPU      0.38s WALL (      10 calls)
 
     PWSCF        :     21.53s CPU     26.85s WALL

 
   This run was terminated on:  11:23:40  22Dec2021            

=------------------------------------------------------------------------------=
   JOB DONE.
=------------------------------------------------------------------------------=
