
     Program PWSCF v.6.6 starts on 22Dec2021 at 11:58: 8 

     This program is part of the open-source Quantum ESPRESSO suite
     for quantum simulation of materials; please cite
         "P. Giannozzi et al., J. Phys.:Condens. Matter 21 395502 (2009);
         "P. Giannozzi et al., J. Phys.:Condens. Matter 29 465901 (2017);
          URL http://www.quantum-espresso.org", 
     in publications or presentations arising from this work. More details at
     http://www.quantum-espresso.org/quote

     Parallel version (MPI & OpenMP), running on     128 processor cores
     Number of MPI processes:               128
     Threads/MPI process:                     1

     MPI processes distributed on     1 nodes
     R & G space division:  proc/nbgrp/npool/nimage =     128
     Fft bands division:     nmany     =       1
     Waiting for input...
     Reading input from standard input

     Current dimensions of program PWSCF are:
     Max number of different atomic species (ntypx) = 10
     Max number of k-points (npk) =  40000
     Max angular momentum in pseudopotentials (lmaxx) =  3
     file C.pbe-n-kjpaw_psl.1.0.0.UPF: wavefunction(s)  2S 2P renormalized
     file H.pbe-kjpaw_psl.1.0.0.UPF: wavefunction(s)  1S renormalized

     Subspace diagonalization in iterative solution of the eigenvalue problem:
     a serial algorithm will be used

 
     Parallelization info
     --------------------
     sticks:   dense  smooth     PW     G-vecs:    dense   smooth      PW
     Min         299     119     29                73597    18607    2317
     Max         300     120     30                73606    18622    2334
     Sum       38393   15329   3833              9421241  2382657  297901
 


     bravais-lattice index     =            0
     lattice parameter (alat)  =      28.3459  a.u.
     unit-cell volume          =   37959.3815 (a.u.)^3
     number of atoms/cell      =           24
     number of atomic types    =            2
     number of electrons       =        60.00
     number of Kohn-Sham states=           30
     kinetic-energy cutoff     =      60.0000  Ry
     charge density cutoff     =     600.0000  Ry
     convergence threshold     =      1.0E-08
     mixing beta               =       0.7000
     number of iterations used =            8  plain     mixing
     Exchange-correlation= SLA PW PBX PBC
                           (   1   4   3   4   0   0   0)

     celldm(1)=  28.345892  celldm(2)=   0.000000  celldm(3)=   0.000000
     celldm(4)=   0.000000  celldm(5)=   0.000000  celldm(6)=   0.000000

     crystal axes: (cart. coord. in units of alat)
               a(1) = (   1.000000   0.000000   0.000000 )  
               a(2) = (   0.000000   1.000000   0.000000 )  
               a(3) = (   0.000000   0.000000   1.666667 )  

     reciprocal axes: (cart. coord. in units 2 pi/alat)
               b(1) = (  1.000000  0.000000  0.000000 )  
               b(2) = (  0.000000  1.000000  0.000000 )  
               b(3) = (  0.000000  0.000000  0.600000 )  


     PseudoPot. # 1 for C  read from file:
     /home/k0151/k015124/src/pseudo/C.pbe-n-kjpaw_psl.1.0.0.UPF
     MD5 check sum: 5f16ad9a65e90284d1d834d4ab3b0f7d
     Pseudo is Projector augmented-wave + core cor, Zval =  4.0
     Generated using "atomic" code by A. Dal Corso v.6.3
     Shape of augmentation charge: PSQ
     Using radial grid of 1073 points,  4 beta functions with: 
                l(1) =   0
                l(2) =   0
                l(3) =   1
                l(4) =   1
     Q(r) pseudized with 0 coefficients 


     PseudoPot. # 2 for H  read from file:
     /home/k0151/k015124/src/pseudo/H.pbe-kjpaw_psl.1.0.0.UPF
     MD5 check sum: d81a744832360e4a8af0b0b5b123bc2a
     Pseudo is Projector augmented-wave, Zval =  1.0
     Generated using "atomic" code by A. Dal Corso v.6.3MaX
     Shape of augmentation charge: PSQ
     Using radial grid of  929 points,  2 beta functions with: 
                l(1) =   0
                l(2) =   0
     Q(r) pseudized with 0 coefficients 


     atomic species   valence    mass     pseudopotential
        C              4.00    12.01100     C ( 1.00)
        H              1.00     1.00800     H ( 1.00)

     No symmetry found


                                    s                        frac. trans.

      isym =  1     identity                                     

 cryst.   s( 1) = (     1          0          0      )
                  (     0          1          0      )
                  (     0          0          1      )

 cart.    s( 1) = (  1.0000000  0.0000000  0.0000000 )
                  (  0.0000000  1.0000000  0.0000000 )
                  (  0.0000000  0.0000000  1.0000000 )


   Cartesian axes

     site n.     atom                  positions (alat units)
         1           C   tau(   1) = (   0.5926667   0.5000000   0.8333333  )
         2           C   tau(   2) = (   0.5466667   0.4200000   0.8333333  )
         3           C   tau(   3) = (   0.4533333   0.4200000   0.8333333  )
         4           C   tau(   4) = (   0.4073333   0.5000000   0.8333333  )
         5           C   tau(   5) = (   0.4533333   0.5800000   0.8333333  )
         6           C   tau(   6) = (   0.5466667   0.5800000   0.8333333  )
         7           H   tau(   7) = (   0.6593333   0.5000000   0.8333333  )
         8           H   tau(   8) = (   0.5800000   0.3620000   0.8333333  )
         9           H   tau(   9) = (   0.4200000   0.3620000   0.8333333  )
        10           H   tau(  10) = (   0.3406667   0.5000000   0.8333333  )
        11           H   tau(  11) = (   0.4200000   0.6380000   0.8333333  )
        12           H   tau(  12) = (   0.5800000   0.6380000   0.8333333  )
        13           C   tau(  13) = (   0.7133333   0.5466667   1.0666667  )
        14           C   tau(  14) = (   0.7133333   0.4533333   1.0666667  )
        15           C   tau(  15) = (   0.6333333   0.4073333   1.0666667  )
        16           C   tau(  16) = (   0.5533333   0.4533333   1.0666667  )
        17           C   tau(  17) = (   0.5533333   0.5466667   1.0666667  )
        18           C   tau(  18) = (   0.6333333   0.5926667   1.0666667  )
        19           H   tau(  19) = (   0.7713333   0.5800000   1.0666667  )
        20           H   tau(  20) = (   0.7713333   0.4200000   1.0666667  )
        21           H   tau(  21) = (   0.6333333   0.3406667   1.0666667  )
        22           H   tau(  22) = (   0.4953333   0.4206667   1.0666667  )
        23           H   tau(  23) = (   0.4953333   0.5800000   1.0666667  )
        24           H   tau(  24) = (   0.6333333   0.6593333   1.0666667  )

   Crystallographic axes

     site n.     atom                  positions (cryst. coord.)
         1           C   tau(   1) = (  0.5926667  0.5000000  0.5000000  )
         2           C   tau(   2) = (  0.5466667  0.4200000  0.5000000  )
         3           C   tau(   3) = (  0.4533333  0.4200000  0.5000000  )
         4           C   tau(   4) = (  0.4073333  0.5000000  0.5000000  )
         5           C   tau(   5) = (  0.4533333  0.5800000  0.5000000  )
         6           C   tau(   6) = (  0.5466667  0.5800000  0.5000000  )
         7           H   tau(   7) = (  0.6593333  0.5000000  0.5000000  )
         8           H   tau(   8) = (  0.5800000  0.3620000  0.5000000  )
         9           H   tau(   9) = (  0.4200000  0.3620000  0.5000000  )
        10           H   tau(  10) = (  0.3406667  0.5000000  0.5000000  )
        11           H   tau(  11) = (  0.4200000  0.6380000  0.5000000  )
        12           H   tau(  12) = (  0.5800000  0.6380000  0.5000000  )
        13           C   tau(  13) = (  0.7133333  0.5466667  0.6400000  )
        14           C   tau(  14) = (  0.7133333  0.4533333  0.6400000  )
        15           C   tau(  15) = (  0.6333333  0.4073333  0.6400000  )
        16           C   tau(  16) = (  0.5533333  0.4533333  0.6400000  )
        17           C   tau(  17) = (  0.5533333  0.5466667  0.6400000  )
        18           C   tau(  18) = (  0.6333333  0.5926667  0.6400000  )
        19           H   tau(  19) = (  0.7713333  0.5800000  0.6400000  )
        20           H   tau(  20) = (  0.7713333  0.4200000  0.6400000  )
        21           H   tau(  21) = (  0.6333333  0.3406667  0.6400000  )
        22           H   tau(  22) = (  0.4953333  0.4206667  0.6400000  )
        23           H   tau(  23) = (  0.4953333  0.5800000  0.6400000  )
        24           H   tau(  24) = (  0.6333333  0.6593333  0.6400000  )

     number of k points=     1
                       cart. coord. in units 2pi/alat
        k(    1) = (   0.0000000   0.0000000   0.0000000), wk =   2.0000000

                       cryst. coord.
        k(    1) = (   0.0000000   0.0000000   0.0000000), wk =   2.0000000

     Dense  grid:  9421241 G-vectors     FFT dimensions: ( 225, 225, 375)

     Smooth grid:  2382657 G-vectors     FFT dimensions: ( 144, 144, 240)

     Dynamical RAM for                 wfc:       1.07 MB

     Dynamical RAM for     wfc (w. buffer):       1.07 MB

     Dynamical RAM for           str. fact:       2.25 MB

     Dynamical RAM for           local pot:       0.00 MB

     Dynamical RAM for          nlocal pot:       4.26 MB

     Dynamical RAM for                qrad:       1.12 MB

     Dynamical RAM for          rho,v,vnew:       6.85 MB

     Dynamical RAM for               rhoin:       2.28 MB

     Dynamical RAM for            rho*nmix:      17.97 MB

     Dynamical RAM for           G-vectors:       4.35 MB

     Dynamical RAM for          h,s,v(r/c):       0.16 MB

     Dynamical RAM for          <psi|beta>:       0.05 MB

     Dynamical RAM for                 psi:       2.13 MB

     Dynamical RAM for                hpsi:       2.13 MB

     Dynamical RAM for                spsi:       2.13 MB

     Dynamical RAM for      wfcinit/wfcrot:       2.15 MB

     Dynamical RAM for           addusdens:      61.77 MB

     Estimated static dynamical RAM per process >      49.31 MB

     Estimated max dynamical RAM per process >     143.76 MB

     Estimated total dynamical RAM >      17.97 GB

     Atomic positions and unit cell read from directory:
     ./tmp/ben2_h3_5.save/
 

     The initial density is read from file :
     ./tmp/ben2_h3_5.save/charge-density


     negative rho (up, down):  3.499E-04 0.000E+00
     Starting wfcs from file
     Checking if some PAW data can be deallocated... 
       PAW data deallocated on   62 nodes for type:  1
       PAW data deallocated on   66 nodes for type:  2

     total cpu time spent up to now is       16.5 secs

     Self-consistent Calculation

     iteration #  1     ecut=    60.00 Ry     beta= 0.70
     Davidson diagonalization with overlap
     ethr =  1.00E-05,  avg # of iterations =  1.0

     Threshold (ethr) on eigenvalues was too large:
     Diagonalizing with lowered threshold

     Davidson diagonalization with overlap
     ethr =  1.55E-12,  avg # of iterations =  5.0

     negative rho (up, down):  3.499E-04 0.000E+00

     total cpu time spent up to now is       19.2 secs

     End of self-consistent calculation

          k = 0.0000 0.0000 0.0000 (297901 PWs)   bands (ev):

   -20.9937 -20.9348 -18.3516 -18.3402 -18.2390 -18.2358 -14.8452 -14.8301
   -14.7806 -14.7727 -12.9999 -12.9889 -11.4442 -11.4406 -10.5518 -10.5494
   -10.1847 -10.1739 -10.0894 -10.0796  -8.9846  -8.5212  -8.0966  -8.0909
    -7.9957  -7.9846  -6.1917  -6.0502  -5.8997  -5.8146

     occupation numbers 
     1.0000   1.0000   1.0000   1.0000   1.0000   1.0000   1.0000   1.0000
     1.0000   1.0000   1.0000   1.0000   1.0000   1.0000   1.0000   1.0000
     1.0000   1.0000   1.0000   1.0000   1.0000   1.0000   1.0000   1.0000
     1.0000   1.0000   1.0000   1.0000   1.0000   1.0000

     highest occupied level (ev):    -5.8146

!    total energy              =    -235.23392470 Ry

     total all-electron energy =      -928.403039 Ry
     estimated scf accuracy    <          2.5E-09 Ry

     The total energy is the sum of the following terms:
     one-electron contribution =    -944.52492710 Ry
     hartree contribution      =     480.65439402 Ry
     xc contribution           =     -64.74892237 Ry
     ewald contribution        =     367.42852095 Ry
     one-center paw contrib.   =     -74.04299020 Ry
      -> PAW hartree energy AE =      10.02520514 Ry
      -> PAW hartree energy PS =     -10.01611722 Ry
      -> PAW xc energy AE      =     -10.80482552 Ry
      -> PAW xc energy PS      =       4.62530748 Ry
      -> total E_H with PAW    =     480.66348193 Ry
      -> total E_XC with PAW   =     -70.92844041 Ry

     convergence has been achieved in   1 iterations

     Writing output data file ./tmp/ben2_h3_5.save/
 
     init_run     :     10.35s CPU     13.76s WALL (       1 calls)
     electrons    :      1.89s CPU      3.34s WALL (       1 calls)

     Called by init_run:
     wfcinit      :      0.26s CPU      0.42s WALL (       1 calls)
     potinit      :      0.38s CPU      2.22s WALL (       1 calls)
     hinit0       :      0.45s CPU      1.30s WALL (       1 calls)

     Called by electrons:
     c_bands      :      0.73s CPU      1.51s WALL (       2 calls)
     sum_band     :      0.48s CPU      0.63s WALL (       2 calls)
     v_of_rho     :      0.43s CPU      0.66s WALL (       2 calls)
     v_h          :      0.04s CPU      0.05s WALL (       2 calls)
     v_xc         :      0.38s CPU      0.61s WALL (       2 calls)
     newd         :      0.27s CPU      0.68s WALL (       2 calls)
     PAW_pot      :      0.04s CPU      0.48s WALL (       2 calls)
     mix_rho      :      0.00s CPU      0.01s WALL (       2 calls)

     Called by c_bands:
     init_us_2    :      0.01s CPU      0.01s WALL (       4 calls)
     cegterg      :      0.55s CPU      1.25s WALL (       2 calls)

     Called by sum_band:
     sum_band:wei :      0.00s CPU      0.00s WALL (       2 calls)
     sum_band:loo :      0.10s CPU      0.10s WALL (       2 calls)
     sum_band:buf :      0.00s CPU      0.00s WALL (       2 calls)
     sum_band:ini :      0.01s CPU      0.01s WALL (       2 calls)
     sum_band:cal :      0.01s CPU      0.01s WALL (       2 calls)
     sum_band:bec :      0.00s CPU      0.00s WALL (       2 calls)
     addusdens    :      0.34s CPU      0.47s WALL (       2 calls)
     addusd:skk   :      0.02s CPU      0.06s WALL (       4 calls)
     addusd:dgemm :      0.18s CPU      0.26s WALL (       4 calls)
     addusd:qvan2 :      0.12s CPU      0.12s WALL (       4 calls)

     Called by *egterg:
     cdiaghg      :      0.01s CPU      0.52s WALL (       6 calls)
     cegterg:over :      0.02s CPU      0.02s WALL (       6 calls)
     cegterg:upda :      0.01s CPU      0.01s WALL (       6 calls)
     cegterg:last :      0.02s CPU      0.02s WALL (       3 calls)
     h_psi        :      0.43s CPU      0.52s WALL (       8 calls)
     s_psi        :      0.04s CPU      0.04s WALL (       8 calls)
     g_psi        :      0.00s CPU      0.00s WALL (       6 calls)

     Called by h_psi:
     h_psi:calbec :      0.04s CPU      0.11s WALL (       8 calls)
     vloc_psi     :      0.34s CPU      0.36s WALL (       8 calls)
     add_vuspsi   :      0.04s CPU      0.05s WALL (       8 calls)

     General routines
     calbec       :      0.05s CPU      0.12s WALL (      10 calls)
     fft          :      0.36s CPU      1.36s WALL (      25 calls)
     ffts         :      0.02s CPU      0.03s WALL (       4 calls)
     fftw         :      0.39s CPU      0.41s WALL (     358 calls)
     interpolate  :      0.04s CPU      0.05s WALL (       2 calls)
 
     Parallel routines
     fft_scatt_xy :      0.07s CPU      0.07s WALL (     387 calls)
     fft_scatt_yz :      0.47s CPU      0.56s WALL (     387 calls)

     PAW routines
     PAW_pot      :      0.04s CPU      0.48s WALL (       2 calls)
 
     PWSCF        :     13.77s CPU     21.03s WALL

 
   This run was terminated on:  11:58:29  22Dec2021            

=------------------------------------------------------------------------------=
   JOB DONE.
=------------------------------------------------------------------------------=
