
     Program PWSCF v.6.6 starts on 23Dec2021 at  4:31:36 

     This program is part of the open-source Quantum ESPRESSO suite
     for quantum simulation of materials; please cite
         "P. Giannozzi et al., J. Phys.:Condens. Matter 21 395502 (2009);
         "P. Giannozzi et al., J. Phys.:Condens. Matter 29 465901 (2017);
          URL http://www.quantum-espresso.org", 
     in publications or presentations arising from this work. More details at
     http://www.quantum-espresso.org/quote

     Parallel version (MPI & OpenMP), running on     128 processor cores
     Number of MPI processes:               128
     Threads/MPI process:                     1

     MPI processes distributed on     1 nodes
     R & G space division:  proc/nbgrp/npool/nimage =     128
     Fft bands division:     nmany     =       1
     Waiting for input...
     Reading input from standard input

     Current dimensions of program PWSCF are:
     Max number of different atomic species (ntypx) = 10
     Max number of k-points (npk) =  40000
     Max angular momentum in pseudopotentials (lmaxx) =  3
     Message from routine iosys:
     restart disabled: needed files not found
     file C.pbe-n-kjpaw_psl.1.0.0.UPF: wavefunction(s)  2S 2P renormalized
     file H.pbe-kjpaw_psl.1.0.0.UPF: wavefunction(s)  1S renormalized

     Subspace diagonalization in iterative solution of the eigenvalue problem:
     a serial algorithm will be used

 
     Parallelization info
     --------------------
     sticks:   dense  smooth     PW     G-vecs:    dense   smooth      PW
     Min         299     119     29                44165    11165    1391
     Max         300     120     30                44172    11174    1402
     Sum       38393   15329   3833              5653693  1429635  178925
 


     bravais-lattice index     =            0
     lattice parameter (alat)  =      28.3459  a.u.
     unit-cell volume          =   22775.6289 (a.u.)^3
     number of atoms/cell      =           24
     number of atomic types    =            2
     number of electrons       =        60.00
     number of Kohn-Sham states=           30
     kinetic-energy cutoff     =      60.0000  Ry
     charge density cutoff     =     600.0000  Ry
     convergence threshold     =      1.0E-08
     mixing beta               =       0.7000
     number of iterations used =            8  plain     mixing
     Exchange-correlation= SLA PW PBX PBC
                           (   1   4   3   4   0   0   0)

     celldm(1)=  28.345892  celldm(2)=   0.000000  celldm(3)=   0.000000
     celldm(4)=   0.000000  celldm(5)=   0.000000  celldm(6)=   0.000000

     crystal axes: (cart. coord. in units of alat)
               a(1) = (   1.000000   0.000000   0.000000 )  
               a(2) = (   0.000000   1.000000   0.000000 )  
               a(3) = (   0.000000   0.000000   1.000000 )  

     reciprocal axes: (cart. coord. in units 2 pi/alat)
               b(1) = (  1.000000  0.000000  0.000000 )  
               b(2) = (  0.000000  1.000000  0.000000 )  
               b(3) = (  0.000000  0.000000  1.000000 )  


     PseudoPot. # 1 for C  read from file:
     /home/k0151/k015124/src/pseudo/C.pbe-n-kjpaw_psl.1.0.0.UPF
     MD5 check sum: 5f16ad9a65e90284d1d834d4ab3b0f7d
     Pseudo is Projector augmented-wave + core cor, Zval =  4.0
     Generated using "atomic" code by A. Dal Corso v.6.3
     Shape of augmentation charge: PSQ
     Using radial grid of 1073 points,  4 beta functions with: 
                l(1) =   0
                l(2) =   0
                l(3) =   1
                l(4) =   1
     Q(r) pseudized with 0 coefficients 


     PseudoPot. # 2 for H  read from file:
     /home/k0151/k015124/src/pseudo/H.pbe-kjpaw_psl.1.0.0.UPF
     MD5 check sum: d81a744832360e4a8af0b0b5b123bc2a
     Pseudo is Projector augmented-wave, Zval =  1.0
     Generated using "atomic" code by A. Dal Corso v.6.3MaX
     Shape of augmentation charge: PSQ
     Using radial grid of  929 points,  2 beta functions with: 
                l(1) =   0
                l(2) =   0
     Q(r) pseudized with 0 coefficients 


     atomic species   valence    mass     pseudopotential
        C              4.00    12.01100     C ( 1.00)
        H              1.00     1.00800     H ( 1.00)

     No symmetry found


                                    s                        frac. trans.

      isym =  1     identity                                     

 cryst.   s( 1) = (     1          0          0      )
                  (     0          1          0      )
                  (     0          0          1      )

 cart.    s( 1) = (  1.0000000  0.0000000  0.0000000 )
                  (  0.0000000  1.0000000  0.0000000 )
                  (  0.0000000  0.0000000  1.0000000 )


   Cartesian axes

     site n.     atom                  positions (alat units)
         1           C   tau(   1) = (   0.5926667   0.5000000   0.5000000  )
         2           C   tau(   2) = (   0.5466667   0.4200000   0.5000000  )
         3           C   tau(   3) = (   0.4533333   0.4200000   0.5000000  )
         4           C   tau(   4) = (   0.4073333   0.5000000   0.5000000  )
         5           C   tau(   5) = (   0.4533333   0.5800000   0.5000000  )
         6           C   tau(   6) = (   0.5466667   0.5800000   0.5000000  )
         7           H   tau(   7) = (   0.6593333   0.5000000   0.5000000  )
         8           H   tau(   8) = (   0.5800000   0.3620000   0.5000000  )
         9           H   tau(   9) = (   0.4200000   0.3620000   0.5000000  )
        10           H   tau(  10) = (   0.3406667   0.5000000   0.5000000  )
        11           H   tau(  11) = (   0.4200000   0.6380000   0.5000000  )
        12           H   tau(  12) = (   0.5800000   0.6380000   0.5000000  )
        13           C   tau(  13) = (   0.7800000   0.5466667   0.7533333  )
        14           C   tau(  14) = (   0.7800000   0.4533333   0.7533333  )
        15           C   tau(  15) = (   0.7000000   0.4073333   0.7533333  )
        16           C   tau(  16) = (   0.6200000   0.4533333   0.7533333  )
        17           C   tau(  17) = (   0.6200000   0.5466667   0.7533333  )
        18           C   tau(  18) = (   0.7000000   0.5926667   0.7533333  )
        19           H   tau(  19) = (   0.8380000   0.5800000   0.7533333  )
        20           H   tau(  20) = (   0.8380000   0.4200000   0.7533333  )
        21           H   tau(  21) = (   0.7000000   0.3406667   0.7533333  )
        22           H   tau(  22) = (   0.5620000   0.4206667   0.7533333  )
        23           H   tau(  23) = (   0.5620000   0.5800000   0.7533333  )
        24           H   tau(  24) = (   0.7000000   0.6593333   0.7533333  )

   Crystallographic axes

     site n.     atom                  positions (cryst. coord.)
         1           C   tau(   1) = (  0.5926667  0.5000000  0.5000000  )
         2           C   tau(   2) = (  0.5466667  0.4200000  0.5000000  )
         3           C   tau(   3) = (  0.4533333  0.4200000  0.5000000  )
         4           C   tau(   4) = (  0.4073333  0.5000000  0.5000000  )
         5           C   tau(   5) = (  0.4533333  0.5800000  0.5000000  )
         6           C   tau(   6) = (  0.5466667  0.5800000  0.5000000  )
         7           H   tau(   7) = (  0.6593333  0.5000000  0.5000000  )
         8           H   tau(   8) = (  0.5800000  0.3620000  0.5000000  )
         9           H   tau(   9) = (  0.4200000  0.3620000  0.5000000  )
        10           H   tau(  10) = (  0.3406667  0.5000000  0.5000000  )
        11           H   tau(  11) = (  0.4200000  0.6380000  0.5000000  )
        12           H   tau(  12) = (  0.5800000  0.6380000  0.5000000  )
        13           C   tau(  13) = (  0.7800000  0.5466667  0.7533333  )
        14           C   tau(  14) = (  0.7800000  0.4533333  0.7533333  )
        15           C   tau(  15) = (  0.7000000  0.4073333  0.7533333  )
        16           C   tau(  16) = (  0.6200000  0.4533333  0.7533333  )
        17           C   tau(  17) = (  0.6200000  0.5466667  0.7533333  )
        18           C   tau(  18) = (  0.7000000  0.5926667  0.7533333  )
        19           H   tau(  19) = (  0.8380000  0.5800000  0.7533333  )
        20           H   tau(  20) = (  0.8380000  0.4200000  0.7533333  )
        21           H   tau(  21) = (  0.7000000  0.3406667  0.7533333  )
        22           H   tau(  22) = (  0.5620000  0.4206667  0.7533333  )
        23           H   tau(  23) = (  0.5620000  0.5800000  0.7533333  )
        24           H   tau(  24) = (  0.7000000  0.6593333  0.7533333  )

     number of k points=     1
                       cart. coord. in units 2pi/alat
        k(    1) = (   0.0000000   0.0000000   0.0000000), wk =   2.0000000

                       cryst. coord.
        k(    1) = (   0.0000000   0.0000000   0.0000000), wk =   2.0000000

     Dense  grid:  5653693 G-vectors     FFT dimensions: ( 225, 225, 225)

     Smooth grid:  1429635 G-vectors     FFT dimensions: ( 144, 144, 144)

     Dynamical RAM for                 wfc:       0.64 MB

     Dynamical RAM for     wfc (w. buffer):       0.64 MB

     Dynamical RAM for           str. fact:       1.35 MB

     Dynamical RAM for           local pot:       0.00 MB

     Dynamical RAM for          nlocal pot:       2.56 MB

     Dynamical RAM for                qrad:       1.12 MB

     Dynamical RAM for          rho,v,vnew:       4.34 MB

     Dynamical RAM for               rhoin:       1.45 MB

     Dynamical RAM for            rho*nmix:      10.78 MB

     Dynamical RAM for           G-vectors:       2.61 MB

     Dynamical RAM for          h,s,v(r/c):       0.16 MB

     Dynamical RAM for          <psi|beta>:       0.05 MB

     Dynamical RAM for                 psi:       1.28 MB

     Dynamical RAM for                hpsi:       1.28 MB

     Dynamical RAM for                spsi:       1.28 MB

     Dynamical RAM for      wfcinit/wfcrot:       1.30 MB

     Dynamical RAM for           addusdens:      37.07 MB

     Estimated static dynamical RAM per process >      30.73 MB

     Estimated max dynamical RAM per process >      86.27 MB

     Estimated total dynamical RAM >      10.78 GB
     Cannot read rho : file not found

     Initial potential from superposition of free atoms

     starting charge   59.99939, renormalised to   60.00000

     negative rho (up, down):  1.131E-04 0.000E+00
     Message from routine qexsd_readschema :
     xml data file ./tmp/ben2.save/data-file-schema.xml not found
     Cannot read wfcs: file not found
     Starting wfcs are   60 randomized atomic wfcs
     Checking if some PAW data can be deallocated... 
       PAW data deallocated on   62 nodes for type:  1
       PAW data deallocated on   66 nodes for type:  2

     total cpu time spent up to now is        9.6 secs

     Self-consistent Calculation

     iteration #  1     ecut=    60.00 Ry     beta= 0.70
     Davidson diagonalization with overlap
     ethr =  1.00E-05,  avg # of iterations =  7.0

     negative rho (up, down):  1.998E-04 0.000E+00

     total cpu time spent up to now is       10.8 secs

          k = 0.0000 0.0000 0.0000     band energies (ev):

   -26.8531 -26.8438 -24.1687 -24.1684 -24.0063 -23.9960 -20.5438 -20.5336
   -20.4487 -20.4390 -18.3869 -18.3764 -16.8548 -16.8504 -16.6299 -16.6169
   -15.8277 -15.8232 -15.6934 -15.6815 -13.9036 -13.8872 -13.7845 -13.7839
   -13.4796 -13.3753 -10.8259 -10.8098 -10.6534 -10.6415

     occupation numbers 
     1.0000   1.0000   1.0000   1.0000   1.0000   1.0000   1.0000   1.0000
     1.0000   1.0000   1.0000   1.0000   1.0000   1.0000   1.0000   1.0000
     1.0000   1.0000   1.0000   1.0000   1.0000   1.0000   1.0000   1.0000
     1.0000   1.0000   1.0000   1.0000   1.0000   1.0000

     highest occupied level (ev):   -10.6415

!    total energy              =    -234.40953430 Ry

     total all-electron energy =      -927.578649 Ry
     estimated scf accuracy    <       3.40349551 Ry

     The total energy is the sum of the following terms:
     one-electron contribution =    -758.45221104 Ry
     hartree contribution      =     385.95914757 Ry
     xc contribution           =     -65.27467336 Ry
     ewald contribution        =     265.85416029 Ry
     scf correction            =      11.79229650 Ry
     one-center paw contrib.   =     -74.28825426 Ry
      -> PAW hartree energy AE =       9.23765073 Ry
      -> PAW hartree energy PS =      -9.22668426 Ry
      -> PAW xc energy AE      =     -10.64390446 Ry
      -> PAW xc energy PS      =       4.44197837 Ry
      -> total E_H with PAW    =     385.97011404 Ry
      -> total E_XC with PAW   =     -71.47659945 Ry

     iteration #  2     ecut=    60.00 Ry     beta= 0.70
     Davidson diagonalization with overlap
     ethr =  5.67E-03,  avg # of iterations =  2.0

     negative rho (up, down):  2.370E-04 0.000E+00

     total cpu time spent up to now is       11.9 secs

          k = 0.0000 0.0000 0.0000     band energies (ev):

   -18.9411 -18.9216 -16.7097 -16.6703 -16.6582 -16.6210 -13.5990 -13.5773
   -13.5378 -13.5178 -11.7100 -11.7056 -10.8219 -10.8169  -8.7036  -8.6638
    -8.6546  -8.6423  -8.6125  -8.5906  -7.1368  -6.9410  -6.6589  -6.6570
    -6.5591  -6.5555  -4.4618  -4.4509  -4.3090  -4.2124

     occupation numbers 
     1.0000   1.0000   1.0000   1.0000   1.0000   1.0000   1.0000   1.0000
     1.0000   1.0000   1.0000   1.0000   1.0000   1.0000   1.0000   1.0000
     1.0000   1.0000   1.0000   1.0000   1.0000   1.0000   1.0000   1.0000
     1.0000   1.0000   1.0000   1.0000   1.0000   1.0000

     highest occupied level (ev):    -4.2124

!    total energy              =    -235.14448808 Ry

     total all-electron energy =      -928.313603 Ry
     estimated scf accuracy    <       0.49823439 Ry

     The total energy is the sum of the following terms:
     one-electron contribution =    -734.63418577 Ry
     hartree contribution      =     378.18722296 Ry
     xc contribution           =     -64.53160295 Ry
     ewald contribution        =     265.85416029 Ry
     scf correction            =      -5.89642025 Ry
     one-center paw contrib.   =     -74.12366237 Ry
      -> PAW hartree energy AE =       9.31936991 Ry
      -> PAW hartree energy PS =      -9.30983868 Ry
      -> PAW xc energy AE      =     -10.64539185 Ry
      -> PAW xc energy PS      =       4.45891105 Ry
      -> total E_H with PAW    =     378.19675419 Ry
      -> total E_XC with PAW   =     -70.71808374 Ry

     iteration #  3     ecut=    60.00 Ry     beta= 0.70
     Davidson diagonalization with overlap
     ethr =  8.30E-04,  avg # of iterations =  2.0

     negative rho (up, down):  2.210E-04 0.000E+00

     total cpu time spent up to now is       12.6 secs

          k = 0.0000 0.0000 0.0000     band energies (ev):

   -21.2477 -21.2320 -18.5471 -18.5452 -18.4428 -18.4421 -15.0000 -14.9840
   -14.9327 -14.9261 -13.1952 -13.1897 -11.5553 -11.5509 -10.7443 -10.7422
   -10.4003 -10.3965 -10.3080 -10.3043  -9.0121  -8.8414  -8.2786  -8.2778
    -8.1758  -8.1741  -6.2449  -6.2210  -6.0782  -6.0332

     occupation numbers 
     1.0000   1.0000   1.0000   1.0000   1.0000   1.0000   1.0000   1.0000
     1.0000   1.0000   1.0000   1.0000   1.0000   1.0000   1.0000   1.0000
     1.0000   1.0000   1.0000   1.0000   1.0000   1.0000   1.0000   1.0000
     1.0000   1.0000   1.0000   1.0000   1.0000   1.0000

     highest occupied level (ev):    -6.0332

!    total energy              =    -235.23504653 Ry

     total all-electron energy =      -928.404161 Ry
     estimated scf accuracy    <       0.01343737 Ry

     The total energy is the sum of the following terms:
     one-electron contribution =    -742.45024965 Ry
     hartree contribution      =     379.44980727 Ry
     xc contribution           =     -64.72042153 Ry
     ewald contribution        =     265.85416029 Ry
     scf correction            =       0.68747198 Ry
     one-center paw contrib.   =     -74.05581490 Ry
      -> PAW hartree energy AE =       9.86333920 Ry
      -> PAW hartree energy PS =      -9.85419531 Ry
      -> PAW xc energy AE      =     -10.76810047 Ry
      -> PAW xc energy PS      =       4.58751143 Ry
      -> total E_H with PAW    =     379.45895115 Ry
      -> total E_XC with PAW   =     -70.90101057 Ry

     iteration #  4     ecut=    60.00 Ry     beta= 0.70
     Davidson diagonalization with overlap
     ethr =  2.24E-05,  avg # of iterations =  2.0

     negative rho (up, down):  2.241E-04 0.000E+00

     total cpu time spent up to now is       13.4 secs

          k = 0.0000 0.0000 0.0000     band energies (ev):

   -20.9065 -20.8907 -18.2734 -18.2636 -18.1618 -18.1533 -14.7543 -14.7383
   -14.6890 -14.6805 -12.8990 -12.8932 -11.3268 -11.3217 -10.4811 -10.4810
   -10.0947 -10.0804  -9.9939  -9.9827  -8.7620  -8.5909  -8.0013  -8.0006
    -7.8984  -7.8959  -6.0137  -6.0000  -5.8493  -5.7954

     occupation numbers 
     1.0000   1.0000   1.0000   1.0000   1.0000   1.0000   1.0000   1.0000
     1.0000   1.0000   1.0000   1.0000   1.0000   1.0000   1.0000   1.0000
     1.0000   1.0000   1.0000   1.0000   1.0000   1.0000   1.0000   1.0000
     1.0000   1.0000   1.0000   1.0000   1.0000   1.0000

     highest occupied level (ev):    -5.7954

!    total energy              =    -235.23667112 Ry

     total all-electron energy =      -928.405786 Ry
     estimated scf accuracy    <       0.00051165 Ry

     The total energy is the sum of the following terms:
     one-electron contribution =    -742.23372336 Ry
     hartree contribution      =     379.73011180 Ry
     xc contribution           =     -64.74653556 Ry
     ewald contribution        =     265.85416029 Ry
     scf correction            =       0.20531400 Ry
     one-center paw contrib.   =     -74.04599830 Ry
      -> PAW hartree energy AE =       9.98599399 Ry
      -> PAW hartree energy PS =      -9.97689154 Ry
      -> PAW xc energy AE      =     -10.79593836 Ry
      -> PAW xc energy PS      =       4.61616855 Ry
      -> total E_H with PAW    =     379.73921426 Ry
      -> total E_XC with PAW   =     -70.92630538 Ry

     iteration #  5     ecut=    60.00 Ry     beta= 0.70
     Davidson diagonalization with overlap
     ethr =  8.53E-07,  avg # of iterations =  3.0

     negative rho (up, down):  2.252E-04 0.000E+00

     total cpu time spent up to now is       14.1 secs

          k = 0.0000 0.0000 0.0000     band energies (ev):

   -20.8234 -20.8074 -18.2002 -18.1925 -18.0959 -18.0886 -14.6989 -14.6827
   -14.6332 -14.6248 -12.8459 -12.8404 -11.2949 -11.2903 -10.4050 -10.4044
   -10.0324 -10.0195  -9.9377  -9.9274  -8.6938  -8.5215  -7.9444  -7.9432
    -7.8411  -7.8388  -5.9486  -5.9332  -5.7858  -5.7321

     occupation numbers 
     1.0000   1.0000   1.0000   1.0000   1.0000   1.0000   1.0000   1.0000
     1.0000   1.0000   1.0000   1.0000   1.0000   1.0000   1.0000   1.0000
     1.0000   1.0000   1.0000   1.0000   1.0000   1.0000   1.0000   1.0000
     1.0000   1.0000   1.0000   1.0000   1.0000   1.0000

     highest occupied level (ev):    -5.7321

!    total energy              =    -235.23685642 Ry

     total all-electron energy =      -928.405971 Ry
     estimated scf accuracy    <       0.00002471 Ry

     The total energy is the sum of the following terms:
     one-electron contribution =    -742.00044300 Ry
     hartree contribution      =     379.69865405 Ry
     xc contribution           =     -64.74197201 Ry
     ewald contribution        =     265.85416029 Ry
     scf correction            =      -0.00396995 Ry
     one-center paw contrib.   =     -74.04328580 Ry
      -> PAW hartree energy AE =      10.01869716 Ry
      -> PAW hartree energy PS =     -10.00960837 Ry
      -> PAW xc energy AE      =     -10.80335893 Ry
      -> PAW xc energy PS      =       4.62381726 Ry
      -> total E_H with PAW    =     379.70774284 Ry
      -> total E_XC with PAW   =     -70.92151368 Ry

     iteration #  6     ecut=    60.00 Ry     beta= 0.70
     Davidson diagonalization with overlap
     ethr =  4.12E-08,  avg # of iterations =  5.0

     negative rho (up, down):  2.249E-04 0.000E+00

     total cpu time spent up to now is       14.9 secs

          k = 0.0000 0.0000 0.0000     band energies (ev):

   -20.8361 -20.8200 -18.2072 -18.2011 -18.1036 -18.0957 -14.7032 -14.6867
   -14.6370 -14.6292 -12.8536 -12.8485 -11.2964 -11.2920 -10.4119 -10.4102
   -10.0417 -10.0302  -9.9479  -9.9368  -8.7016  -8.5289  -7.9514  -7.9494
    -7.8474  -7.8458  -5.9553  -5.9393  -5.7923  -5.7389

     occupation numbers 
     1.0000   1.0000   1.0000   1.0000   1.0000   1.0000   1.0000   1.0000
     1.0000   1.0000   1.0000   1.0000   1.0000   1.0000   1.0000   1.0000
     1.0000   1.0000   1.0000   1.0000   1.0000   1.0000   1.0000   1.0000
     1.0000   1.0000   1.0000   1.0000   1.0000   1.0000

     highest occupied level (ev):    -5.7389

!    total energy              =    -235.23686381 Ry

     total all-electron energy =      -928.405978 Ry
     estimated scf accuracy    <       0.00000287 Ry

     The total energy is the sum of the following terms:
     one-electron contribution =    -742.01707374 Ry
     hartree contribution      =     379.70335309 Ry
     xc contribution           =     -64.74090223 Ry
     ewald contribution        =     265.85416029 Ry
     scf correction            =       0.00674754 Ry
     one-center paw contrib.   =     -74.04314877 Ry
      -> PAW hartree energy AE =      10.02290068 Ry
      -> PAW hartree energy PS =     -10.01381118 Ry
      -> PAW xc energy AE      =     -10.80433418 Ry
      -> PAW xc energy PS      =       4.62479280 Ry
      -> total E_H with PAW    =     379.71244259 Ry
      -> total E_XC with PAW   =     -70.92044360 Ry

     iteration #  7     ecut=    60.00 Ry     beta= 0.70
     Davidson diagonalization with overlap
     ethr =  4.79E-09,  avg # of iterations =  5.0

     negative rho (up, down):  2.248E-04 0.000E+00

     total cpu time spent up to now is       15.7 secs

          k = 0.0000 0.0000 0.0000     band energies (ev):

   -20.8332 -20.8172 -18.2064 -18.1991 -18.1018 -18.0947 -14.7028 -14.6865
   -14.6370 -14.6285 -12.8530 -12.8475 -11.2976 -11.2930 -10.4099 -10.4093
   -10.0410 -10.0284  -9.9463  -9.9360  -8.6993  -8.5270  -7.9505  -7.9492
    -7.8471  -7.8448  -5.9534  -5.9379  -5.7904  -5.7371

     occupation numbers 
     1.0000   1.0000   1.0000   1.0000   1.0000   1.0000   1.0000   1.0000
     1.0000   1.0000   1.0000   1.0000   1.0000   1.0000   1.0000   1.0000
     1.0000   1.0000   1.0000   1.0000   1.0000   1.0000   1.0000   1.0000
     1.0000   1.0000   1.0000   1.0000   1.0000   1.0000

     highest occupied level (ev):    -5.7371

!    total energy              =    -235.23686467 Ry

     total all-electron energy =      -928.405979 Ry
     estimated scf accuracy    <       0.00000075 Ry

     The total energy is the sum of the following terms:
     one-electron contribution =    -742.00446845 Ry
     hartree contribution      =     379.70208509 Ry
     xc contribution           =     -64.74071130 Ry
     ewald contribution        =     265.85416029 Ry
     scf correction            =      -0.00488368 Ry
     one-center paw contrib.   =     -74.04304662 Ry
      -> PAW hartree energy AE =      10.02347507 Ry
      -> PAW hartree energy PS =     -10.01438653 Ry
      -> PAW xc energy AE      =     -10.80445618 Ry
      -> PAW xc energy PS      =       4.62492609 Ry
      -> total E_H with PAW    =     379.71117363 Ry
      -> total E_XC with PAW   =     -70.92024140 Ry

     iteration #  8     ecut=    60.00 Ry     beta= 0.70
     Davidson diagonalization with overlap
     ethr =  1.25E-09,  avg # of iterations =  4.0

     negative rho (up, down):  2.248E-04 0.000E+00

     total cpu time spent up to now is       16.5 secs

          k = 0.0000 0.0000 0.0000     band energies (ev):

   -20.8334 -20.8173 -18.2065 -18.1996 -18.1022 -18.0949 -14.7032 -14.6869
   -14.6373 -14.6290 -12.8531 -12.8477 -11.2980 -11.2935 -10.4105 -10.4096
   -10.0410 -10.0288  -9.9465  -9.9360  -8.6996  -8.5271  -7.9509  -7.9495
    -7.8473  -7.8453  -5.9537  -5.9381  -5.7907  -5.7374

     occupation numbers 
     1.0000   1.0000   1.0000   1.0000   1.0000   1.0000   1.0000   1.0000
     1.0000   1.0000   1.0000   1.0000   1.0000   1.0000   1.0000   1.0000
     1.0000   1.0000   1.0000   1.0000   1.0000   1.0000   1.0000   1.0000
     1.0000   1.0000   1.0000   1.0000   1.0000   1.0000

     highest occupied level (ev):    -5.7374

!    total energy              =    -235.23686473 Ry

     total all-electron energy =      -928.405979 Ry
     estimated scf accuracy    <       0.00000009 Ry

     The total energy is the sum of the following terms:
     one-electron contribution =    -742.00493234 Ry
     hartree contribution      =     379.70024913 Ry
     xc contribution           =     -64.74071568 Ry
     ewald contribution        =     265.85416029 Ry
     scf correction            =      -0.00264894 Ry
     one-center paw contrib.   =     -74.04297720 Ry
      -> PAW hartree energy AE =      10.02370017 Ry
      -> PAW hartree energy PS =     -10.01461213 Ry
      -> PAW xc energy AE      =     -10.80450255 Ry
      -> PAW xc energy PS      =       4.62497814 Ry
      -> total E_H with PAW    =     379.70933717 Ry
      -> total E_XC with PAW   =     -70.92024008 Ry

     iteration #  9     ecut=    60.00 Ry     beta= 0.70
     Davidson diagonalization with overlap
     ethr =  1.45E-10,  avg # of iterations =  5.0

     negative rho (up, down):  2.248E-04 0.000E+00

     total cpu time spent up to now is       17.3 secs

          k = 0.0000 0.0000 0.0000     band energies (ev):

   -20.8340 -20.8179 -18.2070 -18.2002 -18.1028 -18.0953 -14.7036 -14.6872
   -14.6375 -14.6295 -12.8533 -12.8480 -11.2980 -11.2935 -10.4112 -10.4100
   -10.0413 -10.0293  -9.9469  -9.9362  -8.7002  -8.5277  -7.9514  -7.9497
    -7.8476  -7.8457  -5.9543  -5.9386  -5.7913  -5.7379

     occupation numbers 
     1.0000   1.0000   1.0000   1.0000   1.0000   1.0000   1.0000   1.0000
     1.0000   1.0000   1.0000   1.0000   1.0000   1.0000   1.0000   1.0000
     1.0000   1.0000   1.0000   1.0000   1.0000   1.0000   1.0000   1.0000
     1.0000   1.0000   1.0000   1.0000   1.0000   1.0000

     highest occupied level (ev):    -5.7379

!    total energy              =    -235.23686477 Ry

     total all-electron energy =      -928.405979 Ry
     estimated scf accuracy    <       0.00000003 Ry

     The total energy is the sum of the following terms:
     one-electron contribution =    -742.00823138 Ry
     hartree contribution      =     379.70021388 Ry
     xc contribution           =     -64.74071337 Ry
     ewald contribution        =     265.85416029 Ry
     scf correction            =       0.00068388 Ry
     one-center paw contrib.   =     -74.04297807 Ry
      -> PAW hartree energy AE =      10.02385189 Ry
      -> PAW hartree energy PS =     -10.01476373 Ry
      -> PAW xc energy AE      =     -10.80453859 Ry
      -> PAW xc energy PS      =       4.62501318 Ry
      -> total E_H with PAW    =     379.70930204 Ry
      -> total E_XC with PAW   =     -70.92023879 Ry

     iteration # 10     ecut=    60.00 Ry     beta= 0.70
     Davidson diagonalization with overlap
     ethr =  5.37E-11,  avg # of iterations =  3.0

     negative rho (up, down):  2.248E-04 0.000E+00

     total cpu time spent up to now is       18.0 secs

          k = 0.0000 0.0000 0.0000     band energies (ev):

   -20.8340 -20.8180 -18.2070 -18.2002 -18.1028 -18.0953 -14.7036 -14.6872
   -14.6376 -14.6294 -12.8533 -12.8480 -11.2980 -11.2935 -10.4112 -10.4101
   -10.0413 -10.0292  -9.9469  -9.9363  -8.7002  -8.5277  -7.9513  -7.9498
    -7.8476  -7.8457  -5.9543  -5.9386  -5.7913  -5.7379

     occupation numbers 
     1.0000   1.0000   1.0000   1.0000   1.0000   1.0000   1.0000   1.0000
     1.0000   1.0000   1.0000   1.0000   1.0000   1.0000   1.0000   1.0000
     1.0000   1.0000   1.0000   1.0000   1.0000   1.0000   1.0000   1.0000
     1.0000   1.0000   1.0000   1.0000   1.0000   1.0000

     highest occupied level (ev):    -5.7379

!    total energy              =    -235.23686477 Ry

     total all-electron energy =      -928.405979 Ry
     estimated scf accuracy    <       0.00000001 Ry

     The total energy is the sum of the following terms:
     one-electron contribution =    -742.00844062 Ry
     hartree contribution      =     379.70055545 Ry
     xc contribution           =     -64.74071864 Ry
     ewald contribution        =     265.85416029 Ry
     scf correction            =       0.00056942 Ry
     one-center paw contrib.   =     -74.04299066 Ry
      -> PAW hartree energy AE =      10.02400394 Ry
      -> PAW hartree energy PS =     -10.01491557 Ry
      -> PAW xc energy AE      =     -10.80457559 Ry
      -> PAW xc energy PS      =       4.62504827 Ry
      -> total E_H with PAW    =     379.70964381 Ry
      -> total E_XC with PAW   =     -70.92024597 Ry

     iteration # 11     ecut=    60.00 Ry     beta= 0.70
     Davidson diagonalization with overlap
     ethr =  1.81E-11,  avg # of iterations =  5.0

     negative rho (up, down):  2.248E-04 0.000E+00

     total cpu time spent up to now is       20.9 secs

     End of self-consistent calculation

          k = 0.0000 0.0000 0.0000 (178925 PWs)   bands (ev):

   -20.8339 -20.8179 -18.2070 -18.2000 -18.1027 -18.0952 -14.7035 -14.6871
   -14.6375 -14.6293 -12.8533 -12.8480 -11.2980 -11.2935 -10.4111 -10.4100
   -10.0413 -10.0291  -9.9468  -9.9363  -8.7001  -8.5276  -7.9512  -7.9497
    -7.8476  -7.8456  -5.9542  -5.9386  -5.7912  -5.7378

     occupation numbers 
     1.0000   1.0000   1.0000   1.0000   1.0000   1.0000   1.0000   1.0000
     1.0000   1.0000   1.0000   1.0000   1.0000   1.0000   1.0000   1.0000
     1.0000   1.0000   1.0000   1.0000   1.0000   1.0000   1.0000   1.0000
     1.0000   1.0000   1.0000   1.0000   1.0000   1.0000

     highest occupied level (ev):    -5.7378

!    total energy              =    -235.23686477 Ry

     total all-electron energy =      -928.405979 Ry
     estimated scf accuracy    <          1.1E-09 Ry

     The total energy is the sum of the following terms:
     one-electron contribution =    -742.00784022 Ry
     hartree contribution      =     379.70052981 Ry
     xc contribution           =     -64.74072377 Ry
     ewald contribution        =     265.85416029 Ry
     one-center paw contrib.   =     -74.04299088 Ry
      -> PAW hartree energy AE =      10.02387850 Ry
      -> PAW hartree energy PS =     -10.01479026 Ry
      -> PAW xc energy AE      =     -10.80454546 Ry
      -> PAW xc energy PS      =       4.62501913 Ry
      -> total E_H with PAW    =     379.70961804 Ry
      -> total E_XC with PAW   =     -70.92025010 Ry

     convergence has been achieved in  11 iterations

     Writing output data file ./tmp/ben2.save/
 
     init_run     :      5.02s CPU      6.61s WALL (       1 calls)
     electrons    :     10.12s CPU     11.91s WALL (       1 calls)

     Called by init_run:
     wfcinit      :      0.16s CPU      0.88s WALL (       1 calls)
     wfcinit:atom :      0.00s CPU      0.00s WALL (       1 calls)
     wfcinit:wfcr :      0.15s CPU      0.87s WALL (       1 calls)
     potinit      :      0.19s CPU      0.35s WALL (       1 calls)
     hinit0       :      0.19s CPU      0.68s WALL (       1 calls)

     Called by electrons:
     c_bands      :      5.45s CPU      5.89s WALL (      11 calls)
     sum_band     :      1.59s CPU      1.95s WALL (      11 calls)
     v_of_rho     :      1.55s CPU      1.65s WALL (      12 calls)
     v_h          :      0.13s CPU      0.15s WALL (      12 calls)
     v_xc         :      1.41s CPU      1.50s WALL (      12 calls)
     newd         :      0.81s CPU      1.26s WALL (      12 calls)
     PAW_pot      :      0.21s CPU      0.35s WALL (      12 calls)
     mix_rho      :      0.28s CPU      0.33s WALL (      11 calls)

     Called by c_bands:
     init_us_2    :      0.04s CPU      0.04s WALL (      23 calls)
     cegterg      :      5.40s CPU      5.83s WALL (      11 calls)

     Called by sum_band:
     sum_band:wei :      0.00s CPU      0.00s WALL (      11 calls)
     sum_band:loo :      0.42s CPU      0.43s WALL (      11 calls)
     sum_band:buf :      0.00s CPU      0.00s WALL (      11 calls)
     sum_band:ini :      0.02s CPU      0.02s WALL (      11 calls)
     sum_band:cal :      0.05s CPU      0.05s WALL (      11 calls)
     sum_band:bec :      0.00s CPU      0.00s WALL (      11 calls)
     addusdens    :      1.00s CPU      1.33s WALL (      11 calls)
     addusd:skk   :      0.11s CPU      0.15s WALL (      22 calls)
     addusd:dgemm :      0.57s CPU      0.84s WALL (      22 calls)
     addusd:qvan2 :      0.23s CPU      0.24s WALL (      22 calls)

     Called by *egterg:
     cdiaghg      :      0.13s CPU      1.06s WALL (      54 calls)
     cegterg:over :      0.11s CPU      0.11s WALL (      43 calls)
     cegterg:upda :      0.04s CPU      0.05s WALL (      43 calls)
     cegterg:last :      0.11s CPU      0.12s WALL (      30 calls)
     h_psi        :      4.41s CPU      4.57s WALL (      55 calls)
     s_psi        :      0.19s CPU      0.19s WALL (      55 calls)
     g_psi        :      0.00s CPU      0.00s WALL (      43 calls)

     Called by h_psi:
     h_psi:calbec :      0.34s CPU      0.43s WALL (      55 calls)
     vloc_psi     :      3.86s CPU      3.92s WALL (      55 calls)
     add_vuspsi   :      0.20s CPU      0.21s WALL (      55 calls)

     General routines
     calbec       :      0.39s CPU      0.48s WALL (      66 calls)
     fft          :      1.26s CPU      1.78s WALL (     154 calls)
     ffts         :      0.07s CPU      0.09s WALL (      23 calls)
     fftw         :      4.01s CPU      4.07s WALL (    2560 calls)
     interpolate  :      0.15s CPU      0.17s WALL (      12 calls)
 
     Parallel routines
     fft_scatt_xy :      0.29s CPU      0.30s WALL (    2737 calls)
     fft_scatt_yz :      3.99s CPU      4.10s WALL (    2737 calls)

     PAW routines
     PAW_pot      :      0.21s CPU      0.35s WALL (      12 calls)
 
     PWSCF        :     16.08s CPU     22.62s WALL

 
   This run was terminated on:   4:31:58  23Dec2021            

=------------------------------------------------------------------------------=
   JOB DONE.
=------------------------------------------------------------------------------=
