
     Program PWSCF v.6.6 starts on 23Dec2021 at  4: 1:17 

     This program is part of the open-source Quantum ESPRESSO suite
     for quantum simulation of materials; please cite
         "P. Giannozzi et al., J. Phys.:Condens. Matter 21 395502 (2009);
         "P. Giannozzi et al., J. Phys.:Condens. Matter 29 465901 (2017);
          URL http://www.quantum-espresso.org", 
     in publications or presentations arising from this work. More details at
     http://www.quantum-espresso.org/quote

     Parallel version (MPI & OpenMP), running on     128 processor cores
     Number of MPI processes:               128
     Threads/MPI process:                     1

     MPI processes distributed on     1 nodes
     R & G space division:  proc/nbgrp/npool/nimage =     128
     Fft bands division:     nmany     =       1
     Waiting for input...
     Reading input from standard input

     Current dimensions of program PWSCF are:
     Max number of different atomic species (ntypx) = 10
     Max number of k-points (npk) =  40000
     Max angular momentum in pseudopotentials (lmaxx) =  3
     Message from routine iosys:
     restart disabled: needed files not found
     file C.pbe-n-kjpaw_psl.1.0.0.UPF: wavefunction(s)  2S 2P renormalized
     file H.pbe-kjpaw_psl.1.0.0.UPF: wavefunction(s)  1S renormalized

     Subspace diagonalization in iterative solution of the eigenvalue problem:
     a serial algorithm will be used

 
     Parallelization info
     --------------------
     sticks:   dense  smooth     PW     G-vecs:    dense   smooth      PW
     Min         299     119     29                44165    11165    1391
     Max         300     120     30                44172    11174    1402
     Sum       38393   15329   3833              5653693  1429635  178925
 


     bravais-lattice index     =            0
     lattice parameter (alat)  =      28.3459  a.u.
     unit-cell volume          =   22775.6289 (a.u.)^3
     number of atoms/cell      =           24
     number of atomic types    =            2
     number of electrons       =        60.00
     number of Kohn-Sham states=           30
     kinetic-energy cutoff     =      60.0000  Ry
     charge density cutoff     =     600.0000  Ry
     convergence threshold     =      1.0E-08
     mixing beta               =       0.7000
     number of iterations used =            8  plain     mixing
     Exchange-correlation= SLA PW PBX PBC
                           (   1   4   3   4   0   0   0)

     celldm(1)=  28.345892  celldm(2)=   0.000000  celldm(3)=   0.000000
     celldm(4)=   0.000000  celldm(5)=   0.000000  celldm(6)=   0.000000

     crystal axes: (cart. coord. in units of alat)
               a(1) = (   1.000000   0.000000   0.000000 )  
               a(2) = (   0.000000   1.000000   0.000000 )  
               a(3) = (   0.000000   0.000000   1.000000 )  

     reciprocal axes: (cart. coord. in units 2 pi/alat)
               b(1) = (  1.000000  0.000000  0.000000 )  
               b(2) = (  0.000000  1.000000  0.000000 )  
               b(3) = (  0.000000  0.000000  1.000000 )  


     PseudoPot. # 1 for C  read from file:
     /home/k0151/k015124/src/pseudo/C.pbe-n-kjpaw_psl.1.0.0.UPF
     MD5 check sum: 5f16ad9a65e90284d1d834d4ab3b0f7d
     Pseudo is Projector augmented-wave + core cor, Zval =  4.0
     Generated using "atomic" code by A. Dal Corso v.6.3
     Shape of augmentation charge: PSQ
     Using radial grid of 1073 points,  4 beta functions with: 
                l(1) =   0
                l(2) =   0
                l(3) =   1
                l(4) =   1
     Q(r) pseudized with 0 coefficients 


     PseudoPot. # 2 for H  read from file:
     /home/k0151/k015124/src/pseudo/H.pbe-kjpaw_psl.1.0.0.UPF
     MD5 check sum: d81a744832360e4a8af0b0b5b123bc2a
     Pseudo is Projector augmented-wave, Zval =  1.0
     Generated using "atomic" code by A. Dal Corso v.6.3MaX
     Shape of augmentation charge: PSQ
     Using radial grid of  929 points,  2 beta functions with: 
                l(1) =   0
                l(2) =   0
     Q(r) pseudized with 0 coefficients 


     atomic species   valence    mass     pseudopotential
        C              4.00    12.01100     C ( 1.00)
        H              1.00     1.00800     H ( 1.00)

     No symmetry found


                                    s                        frac. trans.

      isym =  1     identity                                     

 cryst.   s( 1) = (     1          0          0      )
                  (     0          1          0      )
                  (     0          0          1      )

 cart.    s( 1) = (  1.0000000  0.0000000  0.0000000 )
                  (  0.0000000  1.0000000  0.0000000 )
                  (  0.0000000  0.0000000  1.0000000 )


   Cartesian axes

     site n.     atom                  positions (alat units)
         1           C   tau(   1) = (   0.5926667   0.5000000   0.5000000  )
         2           C   tau(   2) = (   0.5466667   0.4200000   0.5000000  )
         3           C   tau(   3) = (   0.4533333   0.4200000   0.5000000  )
         4           C   tau(   4) = (   0.4073333   0.5000000   0.5000000  )
         5           C   tau(   5) = (   0.4533333   0.5800000   0.5000000  )
         6           C   tau(   6) = (   0.5466667   0.5800000   0.5000000  )
         7           H   tau(   7) = (   0.6593333   0.5000000   0.5000000  )
         8           H   tau(   8) = (   0.5800000   0.3620000   0.5000000  )
         9           H   tau(   9) = (   0.4200000   0.3620000   0.5000000  )
        10           H   tau(  10) = (   0.3406667   0.5000000   0.5000000  )
        11           H   tau(  11) = (   0.4200000   0.6380000   0.5000000  )
        12           H   tau(  12) = (   0.5800000   0.6380000   0.5000000  )
        13           C   tau(  13) = (   0.7800000   0.5466667   0.7200000  )
        14           C   tau(  14) = (   0.7800000   0.4533333   0.7200000  )
        15           C   tau(  15) = (   0.7000000   0.4073333   0.7200000  )
        16           C   tau(  16) = (   0.6200000   0.4533333   0.7200000  )
        17           C   tau(  17) = (   0.6200000   0.5466667   0.7200000  )
        18           C   tau(  18) = (   0.7000000   0.5926667   0.7200000  )
        19           H   tau(  19) = (   0.8380000   0.5800000   0.7200000  )
        20           H   tau(  20) = (   0.8380000   0.4200000   0.7200000  )
        21           H   tau(  21) = (   0.7000000   0.3406667   0.7200000  )
        22           H   tau(  22) = (   0.5620000   0.4206667   0.7200000  )
        23           H   tau(  23) = (   0.5620000   0.5800000   0.7200000  )
        24           H   tau(  24) = (   0.7000000   0.6593333   0.7200000  )

   Crystallographic axes

     site n.     atom                  positions (cryst. coord.)
         1           C   tau(   1) = (  0.5926667  0.5000000  0.5000000  )
         2           C   tau(   2) = (  0.5466667  0.4200000  0.5000000  )
         3           C   tau(   3) = (  0.4533333  0.4200000  0.5000000  )
         4           C   tau(   4) = (  0.4073333  0.5000000  0.5000000  )
         5           C   tau(   5) = (  0.4533333  0.5800000  0.5000000  )
         6           C   tau(   6) = (  0.5466667  0.5800000  0.5000000  )
         7           H   tau(   7) = (  0.6593333  0.5000000  0.5000000  )
         8           H   tau(   8) = (  0.5800000  0.3620000  0.5000000  )
         9           H   tau(   9) = (  0.4200000  0.3620000  0.5000000  )
        10           H   tau(  10) = (  0.3406667  0.5000000  0.5000000  )
        11           H   tau(  11) = (  0.4200000  0.6380000  0.5000000  )
        12           H   tau(  12) = (  0.5800000  0.6380000  0.5000000  )
        13           C   tau(  13) = (  0.7800000  0.5466667  0.7200000  )
        14           C   tau(  14) = (  0.7800000  0.4533333  0.7200000  )
        15           C   tau(  15) = (  0.7000000  0.4073333  0.7200000  )
        16           C   tau(  16) = (  0.6200000  0.4533333  0.7200000  )
        17           C   tau(  17) = (  0.6200000  0.5466667  0.7200000  )
        18           C   tau(  18) = (  0.7000000  0.5926667  0.7200000  )
        19           H   tau(  19) = (  0.8380000  0.5800000  0.7200000  )
        20           H   tau(  20) = (  0.8380000  0.4200000  0.7200000  )
        21           H   tau(  21) = (  0.7000000  0.3406667  0.7200000  )
        22           H   tau(  22) = (  0.5620000  0.4206667  0.7200000  )
        23           H   tau(  23) = (  0.5620000  0.5800000  0.7200000  )
        24           H   tau(  24) = (  0.7000000  0.6593333  0.7200000  )

     number of k points=     1
                       cart. coord. in units 2pi/alat
        k(    1) = (   0.0000000   0.0000000   0.0000000), wk =   2.0000000

                       cryst. coord.
        k(    1) = (   0.0000000   0.0000000   0.0000000), wk =   2.0000000

     Dense  grid:  5653693 G-vectors     FFT dimensions: ( 225, 225, 225)

     Smooth grid:  1429635 G-vectors     FFT dimensions: ( 144, 144, 144)

     Dynamical RAM for                 wfc:       0.64 MB

     Dynamical RAM for     wfc (w. buffer):       0.64 MB

     Dynamical RAM for           str. fact:       1.35 MB

     Dynamical RAM for           local pot:       0.00 MB

     Dynamical RAM for          nlocal pot:       2.56 MB

     Dynamical RAM for                qrad:       1.12 MB

     Dynamical RAM for          rho,v,vnew:       4.34 MB

     Dynamical RAM for               rhoin:       1.45 MB

     Dynamical RAM for            rho*nmix:      10.78 MB

     Dynamical RAM for           G-vectors:       2.61 MB

     Dynamical RAM for          h,s,v(r/c):       0.16 MB

     Dynamical RAM for          <psi|beta>:       0.05 MB

     Dynamical RAM for                 psi:       1.28 MB

     Dynamical RAM for                hpsi:       1.28 MB

     Dynamical RAM for                spsi:       1.28 MB

     Dynamical RAM for      wfcinit/wfcrot:       1.30 MB

     Dynamical RAM for           addusdens:      37.07 MB

     Estimated static dynamical RAM per process >      30.73 MB

     Estimated max dynamical RAM per process >      86.27 MB

     Estimated total dynamical RAM >      10.78 GB
     Cannot read rho : file not found

     Initial potential from superposition of free atoms

     starting charge   59.99939, renormalised to   60.00000

     negative rho (up, down):  1.181E-04 0.000E+00
     Message from routine qexsd_readschema :
     xml data file ./tmp/ben2.save/data-file-schema.xml not found
     Cannot read wfcs: file not found
     Starting wfcs are   60 randomized atomic wfcs
     Checking if some PAW data can be deallocated... 
       PAW data deallocated on   62 nodes for type:  1
       PAW data deallocated on   66 nodes for type:  2

     total cpu time spent up to now is        9.6 secs

     Self-consistent Calculation

     iteration #  1     ecut=    60.00 Ry     beta= 0.70
     Davidson diagonalization with overlap
     ethr =  1.00E-05,  avg # of iterations =  7.0

     negative rho (up, down):  2.047E-04 0.000E+00

     total cpu time spent up to now is       10.8 secs

          k = 0.0000 0.0000 0.0000     band energies (ev):

   -26.8678 -26.8371 -24.1760 -24.1716 -24.0085 -23.9985 -20.5582 -20.5263
   -20.4535 -20.4414 -18.3916 -18.3791 -16.8577 -16.8534 -16.6337 -16.6205
   -15.8302 -15.8276 -15.6980 -15.6836 -13.9076 -13.8895 -13.7894 -13.7869
   -13.5601 -13.3212 -10.9032 -10.8374 -10.6431 -10.5740

     occupation numbers 
     1.0000   1.0000   1.0000   1.0000   1.0000   1.0000   1.0000   1.0000
     1.0000   1.0000   1.0000   1.0000   1.0000   1.0000   1.0000   1.0000
     1.0000   1.0000   1.0000   1.0000   1.0000   1.0000   1.0000   1.0000
     1.0000   1.0000   1.0000   1.0000   1.0000   1.0000

     highest occupied level (ev):   -10.5740

!    total energy              =    -234.41171709 Ry

     total all-electron energy =      -927.580832 Ry
     estimated scf accuracy    <       3.39256451 Ry

     The total energy is the sum of the following terms:
     one-electron contribution =    -786.53404058 Ry
     hartree contribution      =     400.01358501 Ry
     xc contribution           =     -65.27675871 Ry
     ewald contribution        =     279.83609148 Ry
     scf correction            =      11.83751960 Ry
     one-center paw contrib.   =     -74.28811388 Ry
      -> PAW hartree energy AE =       9.23765721 Ry
      -> PAW hartree energy PS =      -9.22669158 Ry
      -> PAW xc energy AE      =     -10.64388484 Ry
      -> PAW xc energy PS      =       4.44196572 Ry
      -> total E_H with PAW    =     400.02455063 Ry
      -> total E_XC with PAW   =     -71.47867783 Ry

     iteration #  2     ecut=    60.00 Ry     beta= 0.70
     Davidson diagonalization with overlap
     ethr =  5.65E-03,  avg # of iterations =  2.0

     negative rho (up, down):  2.411E-04 0.000E+00

     total cpu time spent up to now is       11.8 secs

          k = 0.0000 0.0000 0.0000     band energies (ev):

   -18.9483 -18.8952 -16.7106 -16.6599 -16.6516 -16.5726 -13.6015 -13.5421
   -13.5219 -13.4975 -11.6956 -11.6924 -10.7996 -10.7973  -8.6987  -8.6496
    -8.6449  -8.6167  -8.6027  -8.5687  -7.2036  -6.8629  -6.6426  -6.6354
    -6.5381  -6.5324  -4.5243  -4.5063  -4.2594  -4.0362

     occupation numbers 
     1.0000   1.0000   1.0000   1.0000   1.0000   1.0000   1.0000   1.0000
     1.0000   1.0000   1.0000   1.0000   1.0000   1.0000   1.0000   1.0000
     1.0000   1.0000   1.0000   1.0000   1.0000   1.0000   1.0000   1.0000
     1.0000   1.0000   1.0000   1.0000   1.0000   1.0000

     highest occupied level (ev):    -4.0362

!    total energy              =    -235.14181691 Ry

     total all-electron energy =      -928.310932 Ry
     estimated scf accuracy    <       0.49501612 Ry

     The total energy is the sum of the following terms:
     one-electron contribution =    -762.51332442 Ry
     hartree contribution      =     392.16380854 Ry
     xc contribution           =     -64.54320481 Ry
     ewald contribution        =     279.83609148 Ry
     scf correction            =      -5.96141741 Ry
     one-center paw contrib.   =     -74.12377028 Ry
      -> PAW hartree energy AE =       9.31794532 Ry
      -> PAW hartree energy PS =      -9.30841734 Ry
      -> PAW xc energy AE      =     -10.64502467 Ry
      -> PAW xc energy PS      =       4.45857712 Ry
      -> total E_H with PAW    =     392.17333652 Ry
      -> total E_XC with PAW   =     -70.72965236 Ry

     iteration #  3     ecut=    60.00 Ry     beta= 0.70
     Davidson diagonalization with overlap
     ethr =  8.25E-04,  avg # of iterations =  2.0

     negative rho (up, down):  2.239E-04 0.000E+00

     total cpu time spent up to now is       12.6 secs

          k = 0.0000 0.0000 0.0000     band energies (ev):

   -21.2668 -21.2188 -18.5588 -18.5475 -18.4432 -18.4356 -15.0181 -14.9681
   -14.9361 -14.9258 -13.1989 -13.1891 -11.5548 -11.5530 -10.7465 -10.7420
   -10.4009 -10.4002 -10.3093 -10.3056  -9.1030  -8.7707  -8.2803  -8.2780
    -8.1754  -8.1737  -6.3403  -6.2673  -6.0444  -5.9193

     occupation numbers 
     1.0000   1.0000   1.0000   1.0000   1.0000   1.0000   1.0000   1.0000
     1.0000   1.0000   1.0000   1.0000   1.0000   1.0000   1.0000   1.0000
     1.0000   1.0000   1.0000   1.0000   1.0000   1.0000   1.0000   1.0000
     1.0000   1.0000   1.0000   1.0000   1.0000   1.0000

     highest occupied level (ev):    -5.9193

!    total energy              =    -235.23198067 Ry

     total all-electron energy =      -928.401095 Ry
     estimated scf accuracy    <       0.01352079 Ry

     The total energy is the sum of the following terms:
     one-electron contribution =    -770.44077385 Ry
     hartree contribution      =     393.45260258 Ry
     xc contribution           =     -64.73107862 Ry
     ewald contribution        =     279.83609148 Ry
     scf correction            =       0.70732318 Ry
     one-center paw contrib.   =     -74.05614544 Ry
      -> PAW hartree energy AE =       9.86361534 Ry
      -> PAW hartree energy PS =      -9.85446550 Ry
      -> PAW xc energy AE      =     -10.76824354 Ry
      -> PAW xc energy PS      =       4.58758438 Ry
      -> total E_H with PAW    =     393.46175242 Ry
      -> total E_XC with PAW   =     -70.91173778 Ry

     iteration #  4     ecut=    60.00 Ry     beta= 0.70
     Davidson diagonalization with overlap
     ethr =  2.25E-05,  avg # of iterations =  2.0

     negative rho (up, down):  2.267E-04 0.000E+00

     total cpu time spent up to now is       13.3 secs

          k = 0.0000 0.0000 0.0000     band energies (ev):

   -20.9193 -20.8716 -18.2726 -18.2659 -18.1600 -18.1372 -14.7670 -14.7166
   -14.6859 -14.6743 -12.8966 -12.8877 -11.3207 -11.3186 -10.4774 -10.4744
   -10.0923 -10.0755  -9.9933  -9.9754  -8.8438  -8.5157  -7.9991  -7.9935
    -7.8925  -7.8889  -6.1001  -6.0410  -5.8133  -5.6700

     occupation numbers 
     1.0000   1.0000   1.0000   1.0000   1.0000   1.0000   1.0000   1.0000
     1.0000   1.0000   1.0000   1.0000   1.0000   1.0000   1.0000   1.0000
     1.0000   1.0000   1.0000   1.0000   1.0000   1.0000   1.0000   1.0000
     1.0000   1.0000   1.0000   1.0000   1.0000   1.0000

     highest occupied level (ev):    -5.6700

!    total energy              =    -235.23365340 Ry

     total all-electron energy =      -928.402768 Ry
     estimated scf accuracy    <       0.00050752 Ry

     The total energy is the sum of the following terms:
     one-electron contribution =    -770.19263844 Ry
     hartree contribution      =     393.72309632 Ry
     xc contribution           =     -64.75776582 Ry
     ewald contribution        =     279.83609148 Ry
     scf correction            =       0.20380205 Ry
     one-center paw contrib.   =     -74.04623900 Ry
      -> PAW hartree energy AE =       9.98567068 Ry
      -> PAW hartree energy PS =      -9.97656287 Ry
      -> PAW xc energy AE      =     -10.79594958 Ry
      -> PAW xc energy PS      =       4.61611651 Ry
      -> total E_H with PAW    =     393.73220413 Ry
      -> total E_XC with PAW   =     -70.93759888 Ry

     iteration #  5     ecut=    60.00 Ry     beta= 0.70
     Davidson diagonalization with overlap
     ethr =  8.46E-07,  avg # of iterations =  4.0

     negative rho (up, down):  2.274E-04 0.000E+00

     total cpu time spent up to now is       14.1 secs

          k = 0.0000 0.0000 0.0000     band energies (ev):

   -20.8396 -20.7912 -18.2011 -18.1982 -18.0960 -18.0752 -14.7135 -14.6627
   -14.6320 -14.6206 -12.8453 -12.8368 -11.2897 -11.2881 -10.4040 -10.4002
   -10.0313 -10.0170  -9.9388  -9.9228  -8.7794  -8.4486  -7.9442  -7.9379
    -7.8372  -7.8338  -6.0387  -5.9776  -5.7510  -5.6093

     occupation numbers 
     1.0000   1.0000   1.0000   1.0000   1.0000   1.0000   1.0000   1.0000
     1.0000   1.0000   1.0000   1.0000   1.0000   1.0000   1.0000   1.0000
     1.0000   1.0000   1.0000   1.0000   1.0000   1.0000   1.0000   1.0000
     1.0000   1.0000   1.0000   1.0000   1.0000   1.0000

     highest occupied level (ev):    -5.6093

!    total energy              =    -235.23382641 Ry

     total all-electron energy =      -928.402941 Ry
     estimated scf accuracy    <       0.00002328 Ry

     The total energy is the sum of the following terms:
     one-electron contribution =    -769.96929944 Ry
     hartree contribution      =     393.70029697 Ry
     xc contribution           =     -64.75345736 Ry
     ewald contribution        =     279.83609148 Ry
     scf correction            =      -0.00383142 Ry
     one-center paw contrib.   =     -74.04362665 Ry
      -> PAW hartree energy AE =      10.01869841 Ry
      -> PAW hartree energy PS =     -10.00960296 Ry
      -> PAW xc energy AE      =     -10.80344802 Ry
      -> PAW xc energy PS      =       4.62382538 Ry
      -> total E_H with PAW    =     393.70939242 Ry
      -> total E_XC with PAW   =     -70.93308001 Ry

     iteration #  6     ecut=    60.00 Ry     beta= 0.70
     Davidson diagonalization with overlap
     ethr =  3.88E-08,  avg # of iterations =  5.0

     negative rho (up, down):  2.272E-04 0.000E+00

     total cpu time spent up to now is       14.9 secs

          k = 0.0000 0.0000 0.0000     band energies (ev):

   -20.8489 -20.8001 -18.2057 -18.2047 -18.1019 -18.0797 -14.7166 -14.6655
   -14.6344 -14.6237 -12.8516 -12.8428 -11.2908 -11.2902 -10.4090 -10.4033
   -10.0382 -10.0258  -9.9473  -9.9295  -8.7849  -8.4532  -7.9501  -7.9421
    -7.8415  -7.8396  -6.0427  -5.9816  -5.7554  -5.6141

     occupation numbers 
     1.0000   1.0000   1.0000   1.0000   1.0000   1.0000   1.0000   1.0000
     1.0000   1.0000   1.0000   1.0000   1.0000   1.0000   1.0000   1.0000
     1.0000   1.0000   1.0000   1.0000   1.0000   1.0000   1.0000   1.0000
     1.0000   1.0000   1.0000   1.0000   1.0000   1.0000

     highest occupied level (ev):    -5.6141

!    total energy              =    -235.23383206 Ry

     total all-electron energy =      -928.402947 Ry
     estimated scf accuracy    <       0.00000468 Ry

     The total energy is the sum of the following terms:
     one-electron contribution =    -769.97940523 Ry
     hartree contribution      =     393.70192314 Ry
     xc contribution           =     -64.75246187 Ry
     ewald contribution        =     279.83609148 Ry
     scf correction            =       0.00339611 Ry
     one-center paw contrib.   =     -74.04337570 Ry
      -> PAW hartree energy AE =      10.02307977 Ry
      -> PAW hartree energy PS =     -10.01398492 Ry
      -> PAW xc energy AE      =     -10.80445202 Ry
      -> PAW xc energy PS      =       4.62484485 Ry
      -> total E_H with PAW    =     393.71101798 Ry
      -> total E_XC with PAW   =     -70.93206903 Ry

     iteration #  7     ecut=    60.00 Ry     beta= 0.70
     Davidson diagonalization with overlap
     ethr =  7.80E-09,  avg # of iterations =  5.0

     negative rho (up, down):  2.272E-04 0.000E+00

     total cpu time spent up to now is       15.6 secs

          k = 0.0000 0.0000 0.0000     band energies (ev):

   -20.8476 -20.7992 -18.2059 -18.2037 -18.1007 -18.0796 -14.7164 -14.6655
   -14.6347 -14.6235 -12.8514 -12.8428 -11.2916 -11.2906 -10.4078 -10.4035
   -10.0386 -10.0250  -9.9463  -9.9297  -8.7834  -8.4528  -7.9494  -7.9425
    -7.8418  -7.8389  -6.0422  -5.9809  -5.7545  -5.6127

     occupation numbers 
     1.0000   1.0000   1.0000   1.0000   1.0000   1.0000   1.0000   1.0000
     1.0000   1.0000   1.0000   1.0000   1.0000   1.0000   1.0000   1.0000
     1.0000   1.0000   1.0000   1.0000   1.0000   1.0000   1.0000   1.0000
     1.0000   1.0000   1.0000   1.0000   1.0000   1.0000

     highest occupied level (ev):    -5.6127

!    total energy              =    -235.23383371 Ry

     total all-electron energy =      -928.402948 Ry
     estimated scf accuracy    <       0.00000147 Ry

     The total energy is the sum of the following terms:
     one-electron contribution =    -769.97022718 Ry
     hartree contribution      =     393.69941384 Ry
     xc contribution           =     -64.75200560 Ry
     ewald contribution        =     279.83609148 Ry
     scf correction            =      -0.00392558 Ry
     one-center paw contrib.   =     -74.04318067 Ry
      -> PAW hartree energy AE =      10.02444015 Ry
      -> PAW hartree energy PS =     -10.01534702 Ry
      -> PAW xc energy AE      =     -10.80474989 Ry
      -> PAW xc energy PS      =       4.62516336 Ry
      -> total E_H with PAW    =     393.70850697 Ry
      -> total E_XC with PAW   =     -70.93159213 Ry

     iteration #  8     ecut=    60.00 Ry     beta= 0.70
     Davidson diagonalization with overlap
     ethr =  2.45E-09,  avg # of iterations =  4.0

     negative rho (up, down):  2.271E-04 0.000E+00

     total cpu time spent up to now is       16.4 secs

          k = 0.0000 0.0000 0.0000     band energies (ev):

   -20.8480 -20.7996 -18.2064 -18.2043 -18.1010 -18.0804 -14.7170 -14.6662
   -14.6354 -14.6241 -12.8518 -12.8432 -11.2924 -11.2912 -10.4083 -10.4042
   -10.0391 -10.0255  -9.9465  -9.9304  -8.7840  -8.4530  -7.9500  -7.9433
    -7.8426  -7.8395  -6.0426  -5.9814  -5.7548  -5.6136

     occupation numbers 
     1.0000   1.0000   1.0000   1.0000   1.0000   1.0000   1.0000   1.0000
     1.0000   1.0000   1.0000   1.0000   1.0000   1.0000   1.0000   1.0000
     1.0000   1.0000   1.0000   1.0000   1.0000   1.0000   1.0000   1.0000
     1.0000   1.0000   1.0000   1.0000   1.0000   1.0000

     highest occupied level (ev):    -5.6136

!    total energy              =    -235.23383393 Ry

     total all-electron energy =      -928.402949 Ry
     estimated scf accuracy    <       0.00000007 Ry

     The total energy is the sum of the following terms:
     one-electron contribution =    -769.97285045 Ry
     hartree contribution      =     393.69938414 Ry
     xc contribution           =     -64.75204869 Ry
     ewald contribution        =     279.83609148 Ry
     scf correction            =      -0.00126613 Ry
     one-center paw contrib.   =     -74.04314428 Ry
      -> PAW hartree energy AE =      10.02513699 Ry
      -> PAW hartree energy PS =     -10.01604348 Ry
      -> PAW xc energy AE      =     -10.80491480 Ry
      -> PAW xc energy PS      =       4.62532571 Ry
      -> total E_H with PAW    =     393.70847766 Ry
      -> total E_XC with PAW   =     -70.93163777 Ry

     iteration #  9     ecut=    60.00 Ry     beta= 0.70
     Davidson diagonalization with overlap
     ethr =  1.12E-10,  avg # of iterations =  5.0

     negative rho (up, down):  2.271E-04 0.000E+00

     total cpu time spent up to now is       17.2 secs

          k = 0.0000 0.0000 0.0000     band energies (ev):

   -20.8480 -20.7995 -18.2064 -18.2044 -18.1012 -18.0803 -14.7171 -14.6662
   -14.6353 -14.6242 -12.8518 -12.8432 -11.2924 -11.2913 -10.4086 -10.4042
   -10.0389 -10.0255  -9.9466  -9.9302  -8.7841  -8.4530  -7.9501  -7.9432
    -7.8425  -7.8396  -6.0427  -5.9814  -5.7549  -5.6137

     occupation numbers 
     1.0000   1.0000   1.0000   1.0000   1.0000   1.0000   1.0000   1.0000
     1.0000   1.0000   1.0000   1.0000   1.0000   1.0000   1.0000   1.0000
     1.0000   1.0000   1.0000   1.0000   1.0000   1.0000   1.0000   1.0000
     1.0000   1.0000   1.0000   1.0000   1.0000   1.0000

     highest occupied level (ev):    -5.6137

!    total energy              =    -235.23383395 Ry

     total all-electron energy =      -928.402949 Ry
     estimated scf accuracy    <       0.00000003 Ry

     The total energy is the sum of the following terms:
     one-electron contribution =    -769.97341773 Ry
     hartree contribution      =     393.69918567 Ry
     xc contribution           =     -64.75204920 Ry
     ewald contribution        =     279.83609148 Ry
     scf correction            =      -0.00050937 Ry
     one-center paw contrib.   =     -74.04313480 Ry
      -> PAW hartree energy AE =      10.02516273 Ry
      -> PAW hartree energy PS =     -10.01606923 Ry
      -> PAW xc energy AE      =     -10.80492094 Ry
      -> PAW xc energy PS      =       4.62533201 Ry
      -> total E_H with PAW    =     393.70827916 Ry
      -> total E_XC with PAW   =     -70.93163812 Ry

     iteration # 10     ecut=    60.00 Ry     beta= 0.70
     Davidson diagonalization with overlap
     ethr =  5.47E-11,  avg # of iterations =  5.0

     negative rho (up, down):  2.271E-04 0.000E+00

     total cpu time spent up to now is       17.9 secs

     End of self-consistent calculation

          k = 0.0000 0.0000 0.0000 (178925 PWs)   bands (ev):

   -20.8481 -20.7996 -18.2065 -18.2044 -18.1012 -18.0804 -14.7172 -14.6663
   -14.6354 -14.6242 -12.8518 -12.8432 -11.2924 -11.2912 -10.4086 -10.4043
   -10.0390 -10.0255  -9.9466  -9.9303  -8.7841  -8.4531  -7.9501  -7.9433
    -7.8425  -7.8396  -6.0427  -5.9815  -5.7550  -5.6137

     occupation numbers 
     1.0000   1.0000   1.0000   1.0000   1.0000   1.0000   1.0000   1.0000
     1.0000   1.0000   1.0000   1.0000   1.0000   1.0000   1.0000   1.0000
     1.0000   1.0000   1.0000   1.0000   1.0000   1.0000   1.0000   1.0000
     1.0000   1.0000   1.0000   1.0000   1.0000   1.0000

     highest occupied level (ev):    -5.6137

!    total energy              =    -235.23383396 Ry

     total all-electron energy =      -928.402949 Ry
     estimated scf accuracy    <          3.9E-09 Ry

     The total energy is the sum of the following terms:
     one-electron contribution =    -769.97372564 Ry
     hartree contribution      =     393.69898103 Ry
     xc contribution           =     -64.75204143 Ry
     ewald contribution        =     279.83609148 Ry
     one-center paw contrib.   =     -74.04313940 Ry
      -> PAW hartree energy AE =      10.02519132 Ry
      -> PAW hartree energy PS =     -10.01609775 Ry
      -> PAW xc energy AE      =     -10.80492855 Ry
      -> PAW xc energy PS      =       4.62533875 Ry
      -> total E_H with PAW    =     393.70807460 Ry
      -> total E_XC with PAW   =     -70.93163123 Ry

     convergence has been achieved in  10 iterations

     Writing output data file ./tmp/ben2.save/
 
     init_run     :      5.09s CPU      7.20s WALL (       1 calls)
     electrons    :      7.40s CPU      8.90s WALL (       1 calls)

     Called by init_run:
     wfcinit      :      0.15s CPU      1.41s WALL (       1 calls)
     wfcinit:atom :      0.00s CPU      0.00s WALL (       1 calls)
     wfcinit:wfcr :      0.15s CPU      1.40s WALL (       1 calls)
     potinit      :      0.21s CPU      0.39s WALL (       1 calls)
     hinit0       :      0.20s CPU      0.65s WALL (       1 calls)

     Called by electrons:
     c_bands      :      3.06s CPU      3.39s WALL (      10 calls)
     sum_band     :      1.46s CPU      1.77s WALL (      10 calls)
     v_of_rho     :      1.44s CPU      1.56s WALL (      11 calls)
     v_h          :      0.13s CPU      0.13s WALL (      11 calls)
     v_xc         :      1.31s CPU      1.42s WALL (      11 calls)
     newd         :      0.75s CPU      1.16s WALL (      11 calls)
     PAW_pot      :      0.22s CPU      0.35s WALL (      11 calls)
     mix_rho      :      0.26s CPU      0.32s WALL (      10 calls)

     Called by c_bands:
     init_us_2    :      0.03s CPU      0.04s WALL (      21 calls)
     cegterg      :      3.02s CPU      3.33s WALL (      10 calls)

     Called by sum_band:
     sum_band:wei :      0.00s CPU      0.00s WALL (      10 calls)
     sum_band:loo :      0.39s CPU      0.40s WALL (      10 calls)
     sum_band:buf :      0.00s CPU      0.00s WALL (      10 calls)
     sum_band:ini :      0.02s CPU      0.02s WALL (      10 calls)
     sum_band:cal :      0.04s CPU      0.04s WALL (      10 calls)
     sum_band:bec :      0.00s CPU      0.00s WALL (      10 calls)
     addusdens    :      0.90s CPU      1.19s WALL (      10 calls)
     addusd:skk   :      0.10s CPU      0.13s WALL (      20 calls)
     addusd:dgemm :      0.51s CPU      0.76s WALL (      20 calls)
     addusd:qvan2 :      0.21s CPU      0.21s WALL (      20 calls)

     Called by *egterg:
     cdiaghg      :      0.07s CPU      1.35s WALL (      51 calls)
     cegterg:over :      0.10s CPU      0.10s WALL (      41 calls)
     cegterg:upda :      0.04s CPU      0.05s WALL (      41 calls)
     cegterg:last :      0.11s CPU      0.11s WALL (      27 calls)
     h_psi        :      2.57s CPU      2.78s WALL (      52 calls)
     s_psi        :      0.18s CPU      0.18s WALL (      52 calls)
     g_psi        :      0.00s CPU      0.00s WALL (      41 calls)

     Called by h_psi:
     h_psi:calbec :      0.19s CPU      0.33s WALL (      52 calls)
     vloc_psi     :      2.18s CPU      2.23s WALL (      52 calls)
     add_vuspsi   :      0.19s CPU      0.20s WALL (      52 calls)

     General routines
     calbec       :      0.23s CPU      0.37s WALL (      62 calls)
     fft          :      1.18s CPU      1.69s WALL (     141 calls)
     ffts         :      0.07s CPU      0.07s WALL (      21 calls)
     fftw         :      2.33s CPU      2.37s WALL (    2386 calls)
     interpolate  :      0.14s CPU      0.15s WALL (      11 calls)
 
     Parallel routines
     fft_scatt_xy :      0.27s CPU      0.27s WALL (    2548 calls)
     fft_scatt_yz :      2.32s CPU      2.41s WALL (    2548 calls)

     PAW routines
     PAW_pot      :      0.22s CPU      0.35s WALL (      11 calls)
 
     PWSCF        :     13.41s CPU     19.54s WALL

 
   This run was terminated on:   4: 1:37  23Dec2021            

=------------------------------------------------------------------------------=
   JOB DONE.
=------------------------------------------------------------------------------=
