
     Program PWSCF v.6.6 starts on 22Dec2021 at  9:29:41 

     This program is part of the open-source Quantum ESPRESSO suite
     for quantum simulation of materials; please cite
         "P. Giannozzi et al., J. Phys.:Condens. Matter 21 395502 (2009);
         "P. Giannozzi et al., J. Phys.:Condens. Matter 29 465901 (2017);
          URL http://www.quantum-espresso.org", 
     in publications or presentations arising from this work. More details at
     http://www.quantum-espresso.org/quote

     Parallel version (MPI & OpenMP), running on     128 processor cores
     Number of MPI processes:               128
     Threads/MPI process:                     1

     MPI processes distributed on     1 nodes
     R & G space division:  proc/nbgrp/npool/nimage =     128
     Fft bands division:     nmany     =       1
     Waiting for input...
     Reading input from standard input

     Current dimensions of program PWSCF are:
     Max number of different atomic species (ntypx) = 10
     Max number of k-points (npk) =  40000
     Max angular momentum in pseudopotentials (lmaxx) =  3
     Message from routine iosys:
     restart disabled: needed files not found
     file C.pbe-n-kjpaw_psl.1.0.0.UPF: wavefunction(s)  2S 2P renormalized
     file H.pbe-kjpaw_psl.1.0.0.UPF: wavefunction(s)  1S renormalized

     Subspace diagonalization in iterative solution of the eigenvalue problem:
     a serial algorithm will be used

 
     Parallelization info
     --------------------
     sticks:   dense  smooth     PW     G-vecs:    dense   smooth      PW
     Min         149     119     29                26009    18607    2317
     Max         150     120     30                26028    18622    2334
     Sum       19189   15329   3833              3330537  2382657  297901
 


     bravais-lattice index     =            0
     lattice parameter (alat)  =      28.3459  a.u.
     unit-cell volume          =   37959.3815 (a.u.)^3
     number of atoms/cell      =           24
     number of atomic types    =            2
     number of electrons       =        60.00
     number of Kohn-Sham states=           30
     kinetic-energy cutoff     =      60.0000  Ry
     charge density cutoff     =     300.0000  Ry
     convergence threshold     =      1.0E-08
     mixing beta               =       0.7000
     number of iterations used =            8  plain     mixing
     Exchange-correlation= SLA PW PBX PBC
                           (   1   4   3   4   0   0   0)

     celldm(1)=  28.345892  celldm(2)=   0.000000  celldm(3)=   0.000000
     celldm(4)=   0.000000  celldm(5)=   0.000000  celldm(6)=   0.000000

     crystal axes: (cart. coord. in units of alat)
               a(1) = (   1.000000   0.000000   0.000000 )  
               a(2) = (   0.000000   1.000000   0.000000 )  
               a(3) = (   0.000000   0.000000   1.666667 )  

     reciprocal axes: (cart. coord. in units 2 pi/alat)
               b(1) = (  1.000000  0.000000  0.000000 )  
               b(2) = (  0.000000  1.000000  0.000000 )  
               b(3) = (  0.000000  0.000000  0.600000 )  


     PseudoPot. # 1 for C  read from file:
     /home/k0151/k015124/src/pseudo/C.pbe-n-kjpaw_psl.1.0.0.UPF
     MD5 check sum: 5f16ad9a65e90284d1d834d4ab3b0f7d
     Pseudo is Projector augmented-wave + core cor, Zval =  4.0
     Generated using "atomic" code by A. Dal Corso v.6.3
     Shape of augmentation charge: PSQ
     Using radial grid of 1073 points,  4 beta functions with: 
                l(1) =   0
                l(2) =   0
                l(3) =   1
                l(4) =   1
     Q(r) pseudized with 0 coefficients 


     PseudoPot. # 2 for H  read from file:
     /home/k0151/k015124/src/pseudo/H.pbe-kjpaw_psl.1.0.0.UPF
     MD5 check sum: d81a744832360e4a8af0b0b5b123bc2a
     Pseudo is Projector augmented-wave, Zval =  1.0
     Generated using "atomic" code by A. Dal Corso v.6.3MaX
     Shape of augmentation charge: PSQ
     Using radial grid of  929 points,  2 beta functions with: 
                l(1) =   0
                l(2) =   0
     Q(r) pseudized with 0 coefficients 


     atomic species   valence    mass     pseudopotential
        C              4.00    12.01100     C ( 1.00)
        H              1.00     1.00800     H ( 1.00)

     No symmetry found


                                    s                        frac. trans.

      isym =  1     identity                                     

 cryst.   s( 1) = (     1          0          0      )
                  (     0          1          0      )
                  (     0          0          1      )

 cart.    s( 1) = (  1.0000000  0.0000000  0.0000000 )
                  (  0.0000000  1.0000000  0.0000000 )
                  (  0.0000000  0.0000000  1.0000000 )


   Cartesian axes

     site n.     atom                  positions (alat units)
         1           C   tau(   1) = (   0.5926667   0.5000000   0.8333333  )
         2           C   tau(   2) = (   0.5466667   0.4200000   0.8333333  )
         3           C   tau(   3) = (   0.4533333   0.4200000   0.8333333  )
         4           C   tau(   4) = (   0.4073333   0.5000000   0.8333333  )
         5           C   tau(   5) = (   0.4533333   0.5800000   0.8333333  )
         6           C   tau(   6) = (   0.5466667   0.5800000   0.8333333  )
         7           H   tau(   7) = (   0.6593333   0.5000000   0.8333333  )
         8           H   tau(   8) = (   0.5800000   0.3620000   0.8333333  )
         9           H   tau(   9) = (   0.4200000   0.3620000   0.8333333  )
        10           H   tau(  10) = (   0.3406667   0.5000000   0.8333333  )
        11           H   tau(  11) = (   0.4200000   0.6380000   0.8333333  )
        12           H   tau(  12) = (   0.5800000   0.6380000   0.8333333  )
        13           C   tau(  13) = (   0.7133333   0.5466667   1.2333333  )
        14           C   tau(  14) = (   0.7133333   0.4533333   1.2333333  )
        15           C   tau(  15) = (   0.6333333   0.4073333   1.2333333  )
        16           C   tau(  16) = (   0.5533333   0.4533333   1.2333333  )
        17           C   tau(  17) = (   0.5533333   0.5466667   1.2333333  )
        18           C   tau(  18) = (   0.6333333   0.5926667   1.2333333  )
        19           H   tau(  19) = (   0.7713333   0.5800000   1.2333333  )
        20           H   tau(  20) = (   0.7713333   0.4200000   1.2333333  )
        21           H   tau(  21) = (   0.6333333   0.3406667   1.2333333  )
        22           H   tau(  22) = (   0.4953333   0.4206667   1.2333333  )
        23           H   tau(  23) = (   0.4953333   0.5800000   1.2333333  )
        24           H   tau(  24) = (   0.6333333   0.6593333   1.2333333  )

   Crystallographic axes

     site n.     atom                  positions (cryst. coord.)
         1           C   tau(   1) = (  0.5926667  0.5000000  0.5000000  )
         2           C   tau(   2) = (  0.5466667  0.4200000  0.5000000  )
         3           C   tau(   3) = (  0.4533333  0.4200000  0.5000000  )
         4           C   tau(   4) = (  0.4073333  0.5000000  0.5000000  )
         5           C   tau(   5) = (  0.4533333  0.5800000  0.5000000  )
         6           C   tau(   6) = (  0.5466667  0.5800000  0.5000000  )
         7           H   tau(   7) = (  0.6593333  0.5000000  0.5000000  )
         8           H   tau(   8) = (  0.5800000  0.3620000  0.5000000  )
         9           H   tau(   9) = (  0.4200000  0.3620000  0.5000000  )
        10           H   tau(  10) = (  0.3406667  0.5000000  0.5000000  )
        11           H   tau(  11) = (  0.4200000  0.6380000  0.5000000  )
        12           H   tau(  12) = (  0.5800000  0.6380000  0.5000000  )
        13           C   tau(  13) = (  0.7133333  0.5466667  0.7400000  )
        14           C   tau(  14) = (  0.7133333  0.4533333  0.7400000  )
        15           C   tau(  15) = (  0.6333333  0.4073333  0.7400000  )
        16           C   tau(  16) = (  0.5533333  0.4533333  0.7400000  )
        17           C   tau(  17) = (  0.5533333  0.5466667  0.7400000  )
        18           C   tau(  18) = (  0.6333333  0.5926667  0.7400000  )
        19           H   tau(  19) = (  0.7713333  0.5800000  0.7400000  )
        20           H   tau(  20) = (  0.7713333  0.4200000  0.7400000  )
        21           H   tau(  21) = (  0.6333333  0.3406667  0.7400000  )
        22           H   tau(  22) = (  0.4953333  0.4206667  0.7400000  )
        23           H   tau(  23) = (  0.4953333  0.5800000  0.7400000  )
        24           H   tau(  24) = (  0.6333333  0.6593333  0.7400000  )

     number of k points=     1
                       cart. coord. in units 2pi/alat
        k(    1) = (   0.0000000   0.0000000   0.0000000), wk =   2.0000000

                       cryst. coord.
        k(    1) = (   0.0000000   0.0000000   0.0000000), wk =   2.0000000

     Dense  grid:  3330537 G-vectors     FFT dimensions: ( 160, 160, 270)

     Smooth grid:  2382657 G-vectors     FFT dimensions: ( 144, 144, 240)

     Dynamical RAM for                 wfc:       1.07 MB

     Dynamical RAM for     wfc (w. buffer):       1.07 MB

     Dynamical RAM for           str. fact:       0.79 MB

     Dynamical RAM for           local pot:       0.00 MB

     Dynamical RAM for          nlocal pot:       4.26 MB

     Dynamical RAM for                qrad:       0.79 MB

     Dynamical RAM for          rho,v,vnew:       2.95 MB

     Dynamical RAM for               rhoin:       0.98 MB

     Dynamical RAM for            rho*nmix:       6.35 MB

     Dynamical RAM for           G-vectors:       1.63 MB

     Dynamical RAM for          h,s,v(r/c):       0.16 MB

     Dynamical RAM for          <psi|beta>:       0.05 MB

     Dynamical RAM for                 psi:       2.13 MB

     Dynamical RAM for                hpsi:       2.13 MB

     Dynamical RAM for                spsi:       2.13 MB

     Dynamical RAM for      wfcinit/wfcrot:       2.15 MB

     Dynamical RAM for           addusdens:      21.83 MB

     Estimated static dynamical RAM per process >      22.95 MB

     Estimated max dynamical RAM per process >      50.82 MB

     Estimated total dynamical RAM >       6.35 GB
     Cannot read rho : file not found

     Initial potential from superposition of free atoms

     starting charge   59.99939, renormalised to   60.00000

     negative rho (up, down):  1.985E-03 0.000E+00
     Message from routine qexsd_readschema :
     xml data file ./tmp/ben2_h6.save/data-file-schema.xml not found
     Cannot read wfcs: file not found
     Starting wfcs are   60 randomized atomic wfcs
     Checking if some PAW data can be deallocated... 
       PAW data deallocated on   62 nodes for type:  1
       PAW data deallocated on   66 nodes for type:  2

     total cpu time spent up to now is        5.2 secs

     Self-consistent Calculation

     iteration #  1     ecut=    60.00 Ry     beta= 0.70
     Davidson diagonalization with overlap
     ethr =  1.00E-05,  avg # of iterations =  7.0

     negative rho (up, down):  1.134E-03 0.000E+00

     total cpu time spent up to now is        6.4 secs

          k = 0.0000 0.0000 0.0000     band energies (ev):

   -27.0665 -27.0636 -24.3853 -24.3848 -24.2228 -24.2128 -20.7582 -20.7527
   -20.6654 -20.6556 -18.6036 -18.5934 -17.0721 -17.0675 -16.8466 -16.8334
   -16.0448 -16.0398 -15.9101 -15.8988 -14.1205 -14.1042 -14.0012 -14.0011
   -13.6417 -13.6374 -11.0181 -11.0171 -10.8778 -10.8731

     occupation numbers 
     1.0000   1.0000   1.0000   1.0000   1.0000   1.0000   1.0000   1.0000
     1.0000   1.0000   1.0000   1.0000   1.0000   1.0000   1.0000   1.0000
     1.0000   1.0000   1.0000   1.0000   1.0000   1.0000   1.0000   1.0000
     1.0000   1.0000   1.0000   1.0000   1.0000   1.0000

     highest occupied level (ev):   -10.8731

!    total energy              =    -234.40575085 Ry

     total all-electron energy =      -927.574865 Ry
     estimated scf accuracy    <       3.41053518 Ry

     The total energy is the sum of the following terms:
     one-electron contribution =    -811.15041482 Ry
     hartree contribution      =     411.85282661 Ry
     xc contribution           =     -65.27430299 Ry
     ewald contribution        =     292.63809846 Ry
     scf correction            =      11.81637962 Ry
     one-center paw contrib.   =     -74.28833774 Ry
      -> PAW hartree energy AE =       9.24183685 Ry
      -> PAW hartree energy PS =      -9.23086735 Ry
      -> PAW xc energy AE      =     -10.64492220 Ry
      -> PAW xc energy PS      =       4.44297997 Ry
      -> total E_H with PAW    =     411.86379611 Ry
      -> total E_XC with PAW   =     -71.47624522 Ry

     iteration #  2     ecut=    60.00 Ry     beta= 0.70
     Davidson diagonalization with overlap
     ethr =  5.68E-03,  avg # of iterations =  2.0

     negative rho (up, down):  1.182E-03 0.000E+00

     total cpu time spent up to now is        7.4 secs

          k = 0.0000 0.0000 0.0000     band energies (ev):

   -19.1291 -19.1264 -16.8931 -16.8859 -16.8443 -16.8437 -13.7910 -13.7904
   -13.7366 -13.7272 -11.9100 -11.9056 -11.0293 -11.0228  -8.8886  -8.8798
    -8.8510  -8.8440  -8.8082  -8.7988  -7.2401  -7.2228  -6.8656  -6.8583
    -6.7658  -6.7616  -4.5914  -4.5823  -4.5418  -4.5378

     occupation numbers 
     1.0000   1.0000   1.0000   1.0000   1.0000   1.0000   1.0000   1.0000
     1.0000   1.0000   1.0000   1.0000   1.0000   1.0000   1.0000   1.0000
     1.0000   1.0000   1.0000   1.0000   1.0000   1.0000   1.0000   1.0000
     1.0000   1.0000   1.0000   1.0000   1.0000   1.0000

     highest occupied level (ev):    -4.5378

!    total energy              =    -235.14376192 Ry

     total all-electron energy =      -928.312877 Ry
     estimated scf accuracy    <       0.49947913 Ry

     The total energy is the sum of the following terms:
     one-electron contribution =    -787.47741104 Ry
     hartree contribution      =     404.16714464 Ry
     xc contribution           =     -64.52730000 Ry
     ewald contribution        =     292.63809846 Ry
     scf correction            =      -5.82068681 Ry
     one-center paw contrib.   =     -74.12360717 Ry
      -> PAW hartree energy AE =       9.32625434 Ry
      -> PAW hartree energy PS =      -9.31671561 Ry
      -> PAW xc energy AE      =     -10.64707924 Ry
      -> PAW xc energy PS      =       4.46053741 Ry
      -> total E_H with PAW    =     404.17668337 Ry
      -> total E_XC with PAW   =     -70.71384182 Ry

     iteration #  3     ecut=    60.00 Ry     beta= 0.70
     Davidson diagonalization with overlap
     ethr =  8.32E-04,  avg # of iterations =  2.0

     negative rho (up, down):  1.214E-03 0.000E+00

     total cpu time spent up to now is        8.0 secs

          k = 0.0000 0.0000 0.0000     band energies (ev):

   -21.4214 -21.4196 -18.7282 -18.7262 -18.6259 -18.6238 -15.1750 -15.1745
   -15.1141 -15.1097 -13.3767 -13.3738 -11.7398 -11.7342 -10.9259 -10.9248
   -10.5812 -10.5804 -10.4889 -10.4889  -9.1085  -9.0970  -8.4641  -8.4580
    -8.3611  -8.3556  -6.3709  -6.3703  -6.2808  -6.2785

     occupation numbers 
     1.0000   1.0000   1.0000   1.0000   1.0000   1.0000   1.0000   1.0000
     1.0000   1.0000   1.0000   1.0000   1.0000   1.0000   1.0000   1.0000
     1.0000   1.0000   1.0000   1.0000   1.0000   1.0000   1.0000   1.0000
     1.0000   1.0000   1.0000   1.0000   1.0000   1.0000

     highest occupied level (ev):    -6.2785

!    total energy              =    -235.23431740 Ry

     total all-electron energy =      -928.403432 Ry
     estimated scf accuracy    <       0.01335945 Ry

     The total energy is the sum of the following terms:
     one-electron contribution =    -795.16728597 Ry
     hartree contribution      =     405.39942437 Ry
     xc contribution           =     -64.71577480 Ry
     ewald contribution        =     292.63809846 Ry
     scf correction            =       0.66683157 Ry
     one-center paw contrib.   =     -74.05561104 Ry
      -> PAW hartree energy AE =       9.86420498 Ry
      -> PAW hartree energy PS =      -9.85506632 Ry
      -> PAW xc energy AE      =     -10.76820505 Ry
      -> PAW xc energy PS      =       4.58768146 Ry
      -> total E_H with PAW    =     405.40856303 Ry
      -> total E_XC with PAW   =     -70.89629839 Ry

     iteration #  4     ecut=    60.00 Ry     beta= 0.70
     Davidson diagonalization with overlap
     ethr =  2.23E-05,  avg # of iterations =  2.0

     negative rho (up, down):  1.234E-03 0.000E+00

     total cpu time spent up to now is        8.7 secs

          k = 0.0000 0.0000 0.0000     band energies (ev):

   -21.0868 -21.0861 -18.4568 -18.4566 -18.3490 -18.3448 -14.9363 -14.9348
   -14.8773 -14.8714 -13.0873 -13.0830 -11.5174 -11.5109 -10.6710 -10.6698
   -10.2781 -10.2754 -10.1780 -10.1764  -8.8655  -8.8536  -8.1941  -8.1866
    -8.0893  -8.0857  -6.1531  -6.1518  -6.0534  -6.0530

     occupation numbers 
     1.0000   1.0000   1.0000   1.0000   1.0000   1.0000   1.0000   1.0000
     1.0000   1.0000   1.0000   1.0000   1.0000   1.0000   1.0000   1.0000
     1.0000   1.0000   1.0000   1.0000   1.0000   1.0000   1.0000   1.0000
     1.0000   1.0000   1.0000   1.0000   1.0000   1.0000

     highest occupied level (ev):    -6.0530

!    total energy              =    -235.23591165 Ry

     total all-electron energy =      -928.405026 Ry
     estimated scf accuracy    <       0.00052122 Ry

     The total energy is the sum of the following terms:
     one-electron contribution =    -794.97427516 Ry
     hartree contribution      =     405.68273013 Ry
     xc contribution           =     -64.74179489 Ry
     ewald contribution        =     292.63809846 Ry
     scf correction            =       0.20520189 Ry
     one-center paw contrib.   =     -74.04587208 Ry
      -> PAW hartree energy AE =       9.98906969 Ry
      -> PAW hartree energy PS =      -9.97996940 Ry
      -> PAW xc energy AE      =     -10.79657949 Ry
      -> PAW xc energy PS      =       4.61684655 Ry
      -> total E_H with PAW    =     405.69183042 Ry
      -> total E_XC with PAW   =     -70.92152784 Ry

     iteration #  5     ecut=    60.00 Ry     beta= 0.70
     Davidson diagonalization with overlap
     ethr =  8.69E-07,  avg # of iterations =  3.0

     negative rho (up, down):  1.243E-03 0.000E+00

     total cpu time spent up to now is        9.4 secs

          k = 0.0000 0.0000 0.0000     band energies (ev):

   -21.0021 -21.0018 -18.3841 -18.3837 -18.2823 -18.2790 -14.8799 -14.8792
   -14.8210 -14.8156 -13.0337 -13.0300 -11.4859 -11.4797 -10.5934 -10.5930
   -10.2159 -10.2136 -10.1210 -10.1204  -8.7955  -8.7834  -8.1361  -8.1294
    -8.0320  -8.0278  -6.0844  -6.0835  -5.9910  -5.9896

     occupation numbers 
     1.0000   1.0000   1.0000   1.0000   1.0000   1.0000   1.0000   1.0000
     1.0000   1.0000   1.0000   1.0000   1.0000   1.0000   1.0000   1.0000
     1.0000   1.0000   1.0000   1.0000   1.0000   1.0000   1.0000   1.0000
     1.0000   1.0000   1.0000   1.0000   1.0000   1.0000

     highest occupied level (ev):    -5.9896

!    total energy              =    -235.23609950 Ry

     total all-electron energy =      -928.405214 Ry
     estimated scf accuracy    <       0.00002519 Ry

     The total energy is the sum of the following terms:
     one-electron contribution =    -794.74045023 Ry
     hartree contribution      =     405.64987093 Ry
     xc contribution           =     -64.73719520 Ry
     ewald contribution        =     292.63809846 Ry
     scf correction            =      -0.00332279 Ry
     one-center paw contrib.   =     -74.04310067 Ry
      -> PAW hartree energy AE =      10.02418960 Ry
      -> PAW hartree energy PS =     -10.01510322 Ry
      -> PAW xc energy AE      =     -10.80454507 Ry
      -> PAW xc energy PS      =       4.62504842 Ry
      -> total E_H with PAW    =     405.65895731 Ry
      -> total E_XC with PAW   =     -70.91669185 Ry

     iteration #  6     ecut=    60.00 Ry     beta= 0.70
     Davidson diagonalization with overlap
     ethr =  4.20E-08,  avg # of iterations =  3.0

     negative rho (up, down):  1.244E-03 0.000E+00

     total cpu time spent up to now is       10.0 secs

          k = 0.0000 0.0000 0.0000     band energies (ev):

   -21.0159 -21.0156 -18.3919 -18.3919 -18.2906 -18.2869 -14.8843 -14.8833
   -14.8251 -14.8193 -13.0421 -13.0381 -11.4870 -11.4807 -10.6003 -10.5995
   -10.2263 -10.2236 -10.1317 -10.1307  -8.8038  -8.7917  -8.1431  -8.1360
    -8.0385  -8.0346  -6.0913  -6.0901  -5.9978  -5.9968

     occupation numbers 
     1.0000   1.0000   1.0000   1.0000   1.0000   1.0000   1.0000   1.0000
     1.0000   1.0000   1.0000   1.0000   1.0000   1.0000   1.0000   1.0000
     1.0000   1.0000   1.0000   1.0000   1.0000   1.0000   1.0000   1.0000
     1.0000   1.0000   1.0000   1.0000   1.0000   1.0000

     highest occupied level (ev):    -5.9968

!    total energy              =    -235.23610407 Ry

     total all-electron energy =      -928.405219 Ry
     estimated scf accuracy    <       0.00000294 Ry

     The total energy is the sum of the following terms:
     one-electron contribution =    -794.75996960 Ry
     hartree contribution      =     405.65703475 Ry
     xc contribution           =     -64.73618908 Ry
     ewald contribution        =     292.63809846 Ry
     scf correction            =       0.00796630 Ry
     one-center paw contrib.   =     -74.04304490 Ry
      -> PAW hartree energy AE =      10.02677193 Ry
      -> PAW hartree energy PS =     -10.01768570 Ry
      -> PAW xc energy AE      =     -10.80513536 Ry
      -> PAW xc energy PS      =       4.62564380 Ry
      -> total E_H with PAW    =     405.66612097 Ry
      -> total E_XC with PAW   =     -70.91568064 Ry

     iteration #  7     ecut=    60.00 Ry     beta= 0.70
     Davidson diagonalization with overlap
     ethr =  4.90E-09,  avg # of iterations =  2.0

     negative rho (up, down):  1.244E-03 0.000E+00

     total cpu time spent up to now is       10.7 secs

          k = 0.0000 0.0000 0.0000     band energies (ev):

   -21.0116 -21.0114 -18.3901 -18.3897 -18.2882 -18.2848 -14.8836 -14.8829
   -14.8244 -14.8190 -13.0406 -13.0369 -11.4884 -11.4823 -10.5980 -10.5976
   -10.2243 -10.2220 -10.1295 -10.1289  -8.8007  -8.7886  -8.1420  -8.1352
    -8.0377  -8.0335  -6.0888  -6.0879  -5.9954  -5.9941

     occupation numbers 
     1.0000   1.0000   1.0000   1.0000   1.0000   1.0000   1.0000   1.0000
     1.0000   1.0000   1.0000   1.0000   1.0000   1.0000   1.0000   1.0000
     1.0000   1.0000   1.0000   1.0000   1.0000   1.0000   1.0000   1.0000
     1.0000   1.0000   1.0000   1.0000   1.0000   1.0000

     highest occupied level (ev):    -5.9941

!    total energy              =    -235.23610482 Ry

     total all-electron energy =      -928.405219 Ry
     estimated scf accuracy    <       0.00000025 Ry

     The total energy is the sum of the following terms:
     one-electron contribution =    -794.74497395 Ry
     hartree contribution      =     405.65439546 Ry
     xc contribution           =     -64.73625352 Ry
     ewald contribution        =     292.63809846 Ry
     scf correction            =      -0.00449632 Ry
     one-center paw contrib.   =     -74.04287494 Ry
      -> PAW hartree energy AE =      10.02757983 Ry
      -> PAW hartree energy PS =     -10.01849486 Ry
      -> PAW xc energy AE      =     -10.80530691 Ry
      -> PAW xc energy PS      =       4.62583111 Ry
      -> total E_H with PAW    =     405.66348043 Ry
      -> total E_XC with PAW   =     -70.91572932 Ry

     iteration #  8     ecut=    60.00 Ry     beta= 0.70
     Davidson diagonalization with overlap
     ethr =  4.16E-10,  avg # of iterations =  4.0

     negative rho (up, down):  1.244E-03 0.000E+00

     total cpu time spent up to now is       11.3 secs

     End of self-consistent calculation

          k = 0.0000 0.0000 0.0000 (297901 PWs)   bands (ev):

   -21.0126 -21.0124 -18.3908 -18.3906 -18.2890 -18.2855 -14.8842 -14.8833
   -14.8250 -14.8194 -13.0410 -13.0371 -11.4884 -11.4822 -10.5991 -10.5985
   -10.2248 -10.2224 -10.1300 -10.1292  -8.8016  -8.7895  -8.1426  -8.1356
    -8.0381  -8.0341  -6.0898  -6.0888  -5.9962  -5.9950

     occupation numbers 
     1.0000   1.0000   1.0000   1.0000   1.0000   1.0000   1.0000   1.0000
     1.0000   1.0000   1.0000   1.0000   1.0000   1.0000   1.0000   1.0000
     1.0000   1.0000   1.0000   1.0000   1.0000   1.0000   1.0000   1.0000
     1.0000   1.0000   1.0000   1.0000   1.0000   1.0000

     highest occupied level (ev):    -5.9950

!    total energy              =    -235.23610488 Ry

     total all-electron energy =      -928.405219 Ry
     estimated scf accuracy    <          9.7E-09 Ry

     The total energy is the sum of the following terms:
     one-electron contribution =    -794.74808776 Ry
     hartree contribution      =     405.65288073 Ry
     xc contribution           =     -64.73611050 Ry
     ewald contribution        =     292.63809846 Ry
     one-center paw contrib.   =     -74.04288581 Ry
      -> PAW hartree energy AE =      10.02772125 Ry
      -> PAW hartree energy PS =     -10.01863610 Ry
      -> PAW xc energy AE      =     -10.80534106 Ry
      -> PAW xc energy PS      =       4.62586321 Ry
      -> total E_H with PAW    =     405.66196588 Ry
      -> total E_XC with PAW   =     -70.91558835 Ry

     convergence has been achieved in   8 iterations

     Writing output data file ./tmp/ben2_h6.save/
 
     init_run     :      2.78s CPU      3.67s WALL (       1 calls)
     electrons    :      5.45s CPU      6.45s WALL (       1 calls)

     Called by init_run:
     wfcinit      :      0.22s CPU      0.54s WALL (       1 calls)
     wfcinit:atom :      0.00s CPU      0.00s WALL (       1 calls)
     wfcinit:wfcr :      0.20s CPU      0.52s WALL (       1 calls)
     potinit      :      0.22s CPU      0.30s WALL (       1 calls)
     hinit0       :      0.16s CPU      0.52s WALL (       1 calls)

     Called by electrons:
     c_bands      :      3.08s CPU      3.46s WALL (       8 calls)
     sum_band     :      0.84s CPU      0.99s WALL (       8 calls)
     v_of_rho     :      0.75s CPU      0.82s WALL (       9 calls)
     v_h          :      0.06s CPU      0.07s WALL (       9 calls)
     v_xc         :      0.69s CPU      0.76s WALL (       9 calls)
     newd         :      0.38s CPU      0.53s WALL (       9 calls)
     PAW_pot      :      0.16s CPU      0.23s WALL (       9 calls)
     mix_rho      :      0.17s CPU      0.25s WALL (       8 calls)

     Called by c_bands:
     init_us_2    :      0.05s CPU      0.06s WALL (      17 calls)
     cegterg      :      3.01s CPU      3.38s WALL (       8 calls)

     Called by sum_band:
     sum_band:wei :      0.00s CPU      0.00s WALL (       8 calls)
     sum_band:loo :      0.37s CPU      0.38s WALL (       8 calls)
     sum_band:buf :      0.00s CPU      0.00s WALL (       8 calls)
     sum_band:ini :      0.03s CPU      0.03s WALL (       8 calls)
     sum_band:cal :      0.05s CPU      0.05s WALL (       8 calls)
     sum_band:bec :      0.00s CPU      0.00s WALL (       8 calls)
     addusdens    :      0.38s CPU      0.50s WALL (       8 calls)
     addusd:skk   :      0.05s CPU      0.06s WALL (      16 calls)
     addusd:dgemm :      0.20s CPU      0.31s WALL (      16 calls)
     addusd:qvan2 :      0.09s CPU      0.09s WALL (      16 calls)

     Called by *egterg:
     cdiaghg      :      0.05s CPU      0.56s WALL (      33 calls)
     cegterg:over :      0.17s CPU      0.17s WALL (      25 calls)
     cegterg:upda :      0.05s CPU      0.05s WALL (      25 calls)
     cegterg:last :      0.17s CPU      0.17s WALL (      21 calls)
     h_psi        :      2.42s CPU      2.55s WALL (      34 calls)
     s_psi        :      0.22s CPU      0.23s WALL (      34 calls)
     g_psi        :      0.00s CPU      0.00s WALL (      25 calls)

     Called by h_psi:
     h_psi:calbec :      0.21s CPU      0.27s WALL (      34 calls)
     vloc_psi     :      1.95s CPU      2.00s WALL (      34 calls)
     add_vuspsi   :      0.25s CPU      0.26s WALL (      34 calls)

     General routines
     calbec       :      0.26s CPU      0.33s WALL (      42 calls)
     fft          :      0.61s CPU      1.01s WALL (     115 calls)
     ffts         :      0.05s CPU      0.06s WALL (      17 calls)
     fftw         :      2.08s CPU      2.13s WALL (    1972 calls)
     interpolate  :      0.08s CPU      0.09s WALL (       9 calls)
 
     Parallel routines
     fft_scatt_xy :      0.22s CPU      0.23s WALL (    2104 calls)
     fft_scatt_yz :      1.76s CPU      1.95s WALL (    2104 calls)

     PAW routines
     PAW_pot      :      0.16s CPU      0.23s WALL (       9 calls)
 
     PWSCF        :      9.02s CPU     12.41s WALL

 
   This run was terminated on:   9:29:53  22Dec2021            

=------------------------------------------------------------------------------=
   JOB DONE.
=------------------------------------------------------------------------------=
