
     Program PWSCF v.6.6 starts on 23Dec2021 at  3:51:47 

     This program is part of the open-source Quantum ESPRESSO suite
     for quantum simulation of materials; please cite
         "P. Giannozzi et al., J. Phys.:Condens. Matter 21 395502 (2009);
         "P. Giannozzi et al., J. Phys.:Condens. Matter 29 465901 (2017);
          URL http://www.quantum-espresso.org", 
     in publications or presentations arising from this work. More details at
     http://www.quantum-espresso.org/quote

     Parallel version (MPI & OpenMP), running on     128 processor cores
     Number of MPI processes:               128
     Threads/MPI process:                     1

     MPI processes distributed on     1 nodes
     R & G space division:  proc/nbgrp/npool/nimage =     128
     Fft bands division:     nmany     =       1
     Waiting for input...
     Reading input from standard input

     Current dimensions of program PWSCF are:
     Max number of different atomic species (ntypx) = 10
     Max number of k-points (npk) =  40000
     Max angular momentum in pseudopotentials (lmaxx) =  3
     Message from routine iosys:
     restart disabled: needed files not found
     file C.pbe-n-kjpaw_psl.1.0.0.UPF: wavefunction(s)  2S 2P renormalized
     file H.pbe-kjpaw_psl.1.0.0.UPF: wavefunction(s)  1S renormalized

     Subspace diagonalization in iterative solution of the eigenvalue problem:
     a serial algorithm will be used

 
     Parallelization info
     --------------------
     sticks:   dense  smooth     PW     G-vecs:    dense   smooth      PW
     Min         299     119     29                44165    11165    1391
     Max         300     120     30                44172    11174    1402
     Sum       38393   15329   3833              5653693  1429635  178925
 


     bravais-lattice index     =            0
     lattice parameter (alat)  =      28.3459  a.u.
     unit-cell volume          =   22775.6289 (a.u.)^3
     number of atoms/cell      =           24
     number of atomic types    =            2
     number of electrons       =        60.00
     number of Kohn-Sham states=           30
     kinetic-energy cutoff     =      60.0000  Ry
     charge density cutoff     =     600.0000  Ry
     convergence threshold     =      1.0E-08
     mixing beta               =       0.7000
     number of iterations used =            8  plain     mixing
     Exchange-correlation= SLA PW PBX PBC
                           (   1   4   3   4   0   0   0)

     celldm(1)=  28.345892  celldm(2)=   0.000000  celldm(3)=   0.000000
     celldm(4)=   0.000000  celldm(5)=   0.000000  celldm(6)=   0.000000

     crystal axes: (cart. coord. in units of alat)
               a(1) = (   1.000000   0.000000   0.000000 )  
               a(2) = (   0.000000   1.000000   0.000000 )  
               a(3) = (   0.000000   0.000000   1.000000 )  

     reciprocal axes: (cart. coord. in units 2 pi/alat)
               b(1) = (  1.000000  0.000000  0.000000 )  
               b(2) = (  0.000000  1.000000  0.000000 )  
               b(3) = (  0.000000  0.000000  1.000000 )  


     PseudoPot. # 1 for C  read from file:
     /home/k0151/k015124/src/pseudo/C.pbe-n-kjpaw_psl.1.0.0.UPF
     MD5 check sum: 5f16ad9a65e90284d1d834d4ab3b0f7d
     Pseudo is Projector augmented-wave + core cor, Zval =  4.0
     Generated using "atomic" code by A. Dal Corso v.6.3
     Shape of augmentation charge: PSQ
     Using radial grid of 1073 points,  4 beta functions with: 
                l(1) =   0
                l(2) =   0
                l(3) =   1
                l(4) =   1
     Q(r) pseudized with 0 coefficients 


     PseudoPot. # 2 for H  read from file:
     /home/k0151/k015124/src/pseudo/H.pbe-kjpaw_psl.1.0.0.UPF
     MD5 check sum: d81a744832360e4a8af0b0b5b123bc2a
     Pseudo is Projector augmented-wave, Zval =  1.0
     Generated using "atomic" code by A. Dal Corso v.6.3MaX
     Shape of augmentation charge: PSQ
     Using radial grid of  929 points,  2 beta functions with: 
                l(1) =   0
                l(2) =   0
     Q(r) pseudized with 0 coefficients 


     atomic species   valence    mass     pseudopotential
        C              4.00    12.01100     C ( 1.00)
        H              1.00     1.00800     H ( 1.00)

     No symmetry found


                                    s                        frac. trans.

      isym =  1     identity                                     

 cryst.   s( 1) = (     1          0          0      )
                  (     0          1          0      )
                  (     0          0          1      )

 cart.    s( 1) = (  1.0000000  0.0000000  0.0000000 )
                  (  0.0000000  1.0000000  0.0000000 )
                  (  0.0000000  0.0000000  1.0000000 )


   Cartesian axes

     site n.     atom                  positions (alat units)
         1           C   tau(   1) = (   0.5926667   0.5000000   0.5000000  )
         2           C   tau(   2) = (   0.5466667   0.4200000   0.5000000  )
         3           C   tau(   3) = (   0.4533333   0.4200000   0.5000000  )
         4           C   tau(   4) = (   0.4073333   0.5000000   0.5000000  )
         5           C   tau(   5) = (   0.4533333   0.5800000   0.5000000  )
         6           C   tau(   6) = (   0.5466667   0.5800000   0.5000000  )
         7           H   tau(   7) = (   0.6593333   0.5000000   0.5000000  )
         8           H   tau(   8) = (   0.5800000   0.3620000   0.5000000  )
         9           H   tau(   9) = (   0.4200000   0.3620000   0.5000000  )
        10           H   tau(  10) = (   0.3406667   0.5000000   0.5000000  )
        11           H   tau(  11) = (   0.4200000   0.6380000   0.5000000  )
        12           H   tau(  12) = (   0.5800000   0.6380000   0.5000000  )
        13           C   tau(  13) = (   0.7800000   0.5466667   0.7066667  )
        14           C   tau(  14) = (   0.7800000   0.4533333   0.7066667  )
        15           C   tau(  15) = (   0.7000000   0.4073333   0.7066667  )
        16           C   tau(  16) = (   0.6200000   0.4533333   0.7066667  )
        17           C   tau(  17) = (   0.6200000   0.5466667   0.7066667  )
        18           C   tau(  18) = (   0.7000000   0.5926667   0.7066667  )
        19           H   tau(  19) = (   0.8380000   0.5800000   0.7066667  )
        20           H   tau(  20) = (   0.8380000   0.4200000   0.7066667  )
        21           H   tau(  21) = (   0.7000000   0.3406667   0.7066667  )
        22           H   tau(  22) = (   0.5620000   0.4206667   0.7066667  )
        23           H   tau(  23) = (   0.5620000   0.5800000   0.7066667  )
        24           H   tau(  24) = (   0.7000000   0.6593333   0.7066667  )

   Crystallographic axes

     site n.     atom                  positions (cryst. coord.)
         1           C   tau(   1) = (  0.5926667  0.5000000  0.5000000  )
         2           C   tau(   2) = (  0.5466667  0.4200000  0.5000000  )
         3           C   tau(   3) = (  0.4533333  0.4200000  0.5000000  )
         4           C   tau(   4) = (  0.4073333  0.5000000  0.5000000  )
         5           C   tau(   5) = (  0.4533333  0.5800000  0.5000000  )
         6           C   tau(   6) = (  0.5466667  0.5800000  0.5000000  )
         7           H   tau(   7) = (  0.6593333  0.5000000  0.5000000  )
         8           H   tau(   8) = (  0.5800000  0.3620000  0.5000000  )
         9           H   tau(   9) = (  0.4200000  0.3620000  0.5000000  )
        10           H   tau(  10) = (  0.3406667  0.5000000  0.5000000  )
        11           H   tau(  11) = (  0.4200000  0.6380000  0.5000000  )
        12           H   tau(  12) = (  0.5800000  0.6380000  0.5000000  )
        13           C   tau(  13) = (  0.7800000  0.5466667  0.7066667  )
        14           C   tau(  14) = (  0.7800000  0.4533333  0.7066667  )
        15           C   tau(  15) = (  0.7000000  0.4073333  0.7066667  )
        16           C   tau(  16) = (  0.6200000  0.4533333  0.7066667  )
        17           C   tau(  17) = (  0.6200000  0.5466667  0.7066667  )
        18           C   tau(  18) = (  0.7000000  0.5926667  0.7066667  )
        19           H   tau(  19) = (  0.8380000  0.5800000  0.7066667  )
        20           H   tau(  20) = (  0.8380000  0.4200000  0.7066667  )
        21           H   tau(  21) = (  0.7000000  0.3406667  0.7066667  )
        22           H   tau(  22) = (  0.5620000  0.4206667  0.7066667  )
        23           H   tau(  23) = (  0.5620000  0.5800000  0.7066667  )
        24           H   tau(  24) = (  0.7000000  0.6593333  0.7066667  )

     number of k points=     1
                       cart. coord. in units 2pi/alat
        k(    1) = (   0.0000000   0.0000000   0.0000000), wk =   2.0000000

                       cryst. coord.
        k(    1) = (   0.0000000   0.0000000   0.0000000), wk =   2.0000000

     Dense  grid:  5653693 G-vectors     FFT dimensions: ( 225, 225, 225)

     Smooth grid:  1429635 G-vectors     FFT dimensions: ( 144, 144, 144)

     Dynamical RAM for                 wfc:       0.64 MB

     Dynamical RAM for     wfc (w. buffer):       0.64 MB

     Dynamical RAM for           str. fact:       1.35 MB

     Dynamical RAM for           local pot:       0.00 MB

     Dynamical RAM for          nlocal pot:       2.56 MB

     Dynamical RAM for                qrad:       1.12 MB

     Dynamical RAM for          rho,v,vnew:       4.34 MB

     Dynamical RAM for               rhoin:       1.45 MB

     Dynamical RAM for            rho*nmix:      10.78 MB

     Dynamical RAM for           G-vectors:       2.61 MB

     Dynamical RAM for          h,s,v(r/c):       0.16 MB

     Dynamical RAM for          <psi|beta>:       0.05 MB

     Dynamical RAM for                 psi:       1.28 MB

     Dynamical RAM for                hpsi:       1.28 MB

     Dynamical RAM for                spsi:       1.28 MB

     Dynamical RAM for      wfcinit/wfcrot:       1.30 MB

     Dynamical RAM for           addusdens:      37.07 MB

     Estimated static dynamical RAM per process >      30.73 MB

     Estimated max dynamical RAM per process >      86.27 MB

     Estimated total dynamical RAM >      10.78 GB
     Cannot read rho : file not found

     Initial potential from superposition of free atoms

     starting charge   59.99939, renormalised to   60.00000

     negative rho (up, down):  1.199E-04 0.000E+00
     Message from routine qexsd_readschema :
     xml data file ./tmp/ben2.save/data-file-schema.xml not found
     Cannot read wfcs: file not found
     Starting wfcs are   60 randomized atomic wfcs
     Checking if some PAW data can be deallocated... 
       PAW data deallocated on   62 nodes for type:  1
       PAW data deallocated on   66 nodes for type:  2

     total cpu time spent up to now is       12.1 secs

     Self-consistent Calculation

     iteration #  1     ecut=    60.00 Ry     beta= 0.70
     Davidson diagonalization with overlap
     ethr =  1.00E-05,  avg # of iterations =  7.0

     negative rho (up, down):  2.063E-04 0.000E+00

     total cpu time spent up to now is       13.5 secs

          k = 0.0000 0.0000 0.0000     band energies (ev):

   -26.8816 -26.8314 -24.1856 -24.1751 -24.0084 -24.0006 -20.5722 -20.5195
   -20.4594 -20.4427 -18.3962 -18.3818 -16.8607 -16.8563 -16.6373 -16.6240
   -15.8326 -15.8320 -15.7026 -15.6855 -13.9116 -13.8917 -13.7950 -13.7906
   -13.6146 -13.2870 -10.9619 -10.8609 -10.6335 -10.5175

     occupation numbers 
     1.0000   1.0000   1.0000   1.0000   1.0000   1.0000   1.0000   1.0000
     1.0000   1.0000   1.0000   1.0000   1.0000   1.0000   1.0000   1.0000
     1.0000   1.0000   1.0000   1.0000   1.0000   1.0000   1.0000   1.0000
     1.0000   1.0000   1.0000   1.0000   1.0000   1.0000

     highest occupied level (ev):   -10.5175

!    total energy              =    -234.41106361 Ry

     total all-electron energy =      -927.580178 Ry
     estimated scf accuracy    <       3.38568625 Ry

     The total energy is the sum of the following terms:
     one-electron contribution =    -799.22535185 Ry
     hartree contribution      =     406.36587448 Ry
     xc contribution           =     -65.28029587 Ry
     ewald contribution        =     286.15173387 Ry
     scf correction            =      11.86501596 Ry
     one-center paw contrib.   =     -74.28804019 Ry
      -> PAW hartree energy AE =       9.23771587 Ry
      -> PAW hartree energy PS =      -9.22675043 Ry
      -> PAW xc energy AE      =     -10.64388640 Ry
      -> PAW xc energy PS      =       4.44196644 Ry
      -> total E_H with PAW    =     406.37683992 Ry
      -> total E_XC with PAW   =     -71.48221583 Ry

     iteration #  2     ecut=    60.00 Ry     beta= 0.70
     Davidson diagonalization with overlap
     ethr =  5.64E-03,  avg # of iterations =  2.0

     negative rho (up, down):  2.424E-04 0.000E+00

     total cpu time spent up to now is       14.5 secs

          k = 0.0000 0.0000 0.0000     band energies (ev):

   -18.9580 -18.8795 -16.7156 -16.6641 -16.6463 -16.5374 -13.6091 -13.5200
   -13.5132 -13.4871 -11.6907 -11.6853 -10.7877 -10.7875  -8.6969  -8.6488
    -8.6403  -8.5998  -8.5989  -8.5571  -7.2407  -6.8236  -6.6344  -6.6241
    -6.5259  -6.5191  -4.5705  -4.5301  -4.2331  -3.9210

     occupation numbers 
     1.0000   1.0000   1.0000   1.0000   1.0000   1.0000   1.0000   1.0000
     1.0000   1.0000   1.0000   1.0000   1.0000   1.0000   1.0000   1.0000
     1.0000   1.0000   1.0000   1.0000   1.0000   1.0000   1.0000   1.0000
     1.0000   1.0000   1.0000   1.0000   1.0000   1.0000

     highest occupied level (ev):    -3.9210

!    total energy              =    -235.13800594 Ry

     total all-electron energy =      -928.307121 Ry
     estimated scf accuracy    <       0.49375781 Ry

     The total energy is the sum of the following terms:
     one-electron contribution =    -775.06969784 Ry
     hartree contribution      =     398.46396831 Ry
     xc contribution           =     -64.55273918 Ry
     ewald contribution        =     286.15173387 Ry
     scf correction            =      -6.00736494 Ry
     one-center paw contrib.   =     -74.12390617 Ry
      -> PAW hartree energy AE =       9.31687725 Ry
      -> PAW hartree energy PS =      -9.30734994 Ry
      -> PAW xc energy AE      =     -10.64477234 Ry
      -> PAW xc energy PS      =       4.45832807 Ry
      -> total E_H with PAW    =     398.47349562 Ry
      -> total E_XC with PAW   =     -70.73918346 Ry

     iteration #  3     ecut=    60.00 Ry     beta= 0.70
     Davidson diagonalization with overlap
     ethr =  8.23E-04,  avg # of iterations =  2.0

     negative rho (up, down):  2.246E-04 0.000E+00

     total cpu time spent up to now is       15.3 secs

          k = 0.0000 0.0000 0.0000     band energies (ev):

   -21.2855 -21.2106 -18.5768 -18.5527 -18.4439 -18.4288 -15.0362 -14.9574
   -14.9429 -14.9269 -13.2043 -13.1921 -11.5578 -11.5573 -10.7509 -10.7445
   -10.4072 -10.4033 -10.3120 -10.3105  -9.1604  -8.7314  -8.2844  -8.2810
    -8.1777  -8.1754  -6.4029  -6.2970  -6.0245  -5.8418

     occupation numbers 
     1.0000   1.0000   1.0000   1.0000   1.0000   1.0000   1.0000   1.0000
     1.0000   1.0000   1.0000   1.0000   1.0000   1.0000   1.0000   1.0000
     1.0000   1.0000   1.0000   1.0000   1.0000   1.0000   1.0000   1.0000
     1.0000   1.0000   1.0000   1.0000   1.0000   1.0000

     highest occupied level (ev):    -5.8418

!    total energy              =    -235.22815689 Ry

     total all-electron energy =      -928.397271 Ry
     estimated scf accuracy    <       0.01362472 Ry

     The total energy is the sum of the following terms:
     one-electron contribution =    -783.07663923 Ry
     hartree contribution      =     399.77064919 Ry
     xc contribution           =     -64.74011068 Ry
     ewald contribution        =     286.15173387 Ry
     scf correction            =       0.72265808 Ry
     one-center paw contrib.   =     -74.05644812 Ry
      -> PAW hartree energy AE =       9.86484200 Ry
      -> PAW hartree energy PS =      -9.85568534 Ry
      -> PAW xc energy AE      =     -10.76861436 Ry
      -> PAW xc energy PS      =       4.58787764 Ry
      -> total E_H with PAW    =     399.77980586 Ry
      -> total E_XC with PAW   =     -70.92084741 Ry

     iteration #  4     ecut=    60.00 Ry     beta= 0.70
     Davidson diagonalization with overlap
     ethr =  2.27E-05,  avg # of iterations =  2.0

     negative rho (up, down):  2.275E-04 0.000E+00

     total cpu time spent up to now is       16.0 secs

          k = 0.0000 0.0000 0.0000     band energies (ev):

   -20.9335 -20.8596 -18.2774 -18.2753 -18.1596 -18.1237 -14.7813 -14.7021
   -14.6882 -14.6713 -12.8980 -12.8871 -11.3198 -11.3193 -10.4780 -10.4723
   -10.0926 -10.0766  -9.9949  -9.9745  -8.8941  -8.4739  -8.0002  -7.9921
    -7.8904  -7.8868  -6.1571  -6.0673  -5.7919  -5.5844

     occupation numbers 
     1.0000   1.0000   1.0000   1.0000   1.0000   1.0000   1.0000   1.0000
     1.0000   1.0000   1.0000   1.0000   1.0000   1.0000   1.0000   1.0000
     1.0000   1.0000   1.0000   1.0000   1.0000   1.0000   1.0000   1.0000
     1.0000   1.0000   1.0000   1.0000   1.0000   1.0000

     highest occupied level (ev):    -5.5844

!    total energy              =    -235.22986628 Ry

     total all-electron energy =      -928.398981 Ry
     estimated scf accuracy    <       0.00051270 Ry

     The total energy is the sum of the following terms:
     one-electron contribution =    -782.80631829 Ry
     hartree contribution      =     400.03527806 Ry
     xc contribution           =     -64.76734619 Ry
     ewald contribution        =     286.15173387 Ry
     scf correction            =       0.20322524 Ry
     one-center paw contrib.   =     -74.04643896 Ry
      -> PAW hartree energy AE =       9.98602689 Ry
      -> PAW hartree energy PS =      -9.97691322 Ry
      -> PAW xc energy AE      =     -10.79612140 Ry
      -> PAW xc energy PS      =       4.61622220 Ry
      -> total E_H with PAW    =     400.04439174 Ry
      -> total E_XC with PAW   =     -70.94724540 Ry

     iteration #  5     ecut=    60.00 Ry     beta= 0.70
     Davidson diagonalization with overlap
     ethr =  8.54E-07,  avg # of iterations =  4.0

     negative rho (up, down):  2.280E-04 0.000E+00

     total cpu time spent up to now is       16.8 secs

          k = 0.0000 0.0000 0.0000     band energies (ev):

   -20.8558 -20.7806 -18.2119 -18.2053 -18.0963 -18.0633 -14.7291 -14.6494
   -14.6355 -14.6187 -12.8477 -12.8373 -11.2898 -11.2891 -10.4059 -10.3999
   -10.0325 -10.0194  -9.9412  -9.9236  -8.8322  -8.4080  -7.9463  -7.9377
    -7.8364  -7.8327  -6.0976  -6.0057  -5.7305  -5.5259

     occupation numbers 
     1.0000   1.0000   1.0000   1.0000   1.0000   1.0000   1.0000   1.0000
     1.0000   1.0000   1.0000   1.0000   1.0000   1.0000   1.0000   1.0000
     1.0000   1.0000   1.0000   1.0000   1.0000   1.0000   1.0000   1.0000
     1.0000   1.0000   1.0000   1.0000   1.0000   1.0000

     highest occupied level (ev):    -5.5259

!    total energy              =    -235.23003354 Ry

     total all-electron energy =      -928.399148 Ry
     estimated scf accuracy    <       0.00002263 Ry

     The total energy is the sum of the following terms:
     one-electron contribution =    -782.59344989 Ry
     hartree contribution      =     400.02100498 Ry
     xc contribution           =     -64.76359422 Ry
     ewald contribution        =     286.15173387 Ry
     scf correction            =      -0.00178390 Ry
     one-center paw contrib.   =     -74.04394438 Ry
      -> PAW hartree energy AE =      10.01948924 Ry
      -> PAW hartree energy PS =     -10.01038699 Ry
      -> PAW xc energy AE      =     -10.80371709 Ry
      -> PAW xc energy PS      =       4.62401580 Ry
      -> total E_H with PAW    =     400.03010723 Ry
      -> total E_XC with PAW   =     -70.94329551 Ry

     iteration #  6     ecut=    60.00 Ry     beta= 0.70
     Davidson diagonalization with overlap
     ethr =  3.77E-08,  avg # of iterations =  5.0

     negative rho (up, down):  2.279E-04 0.000E+00

     total cpu time spent up to now is       17.6 secs

          k = 0.0000 0.0000 0.0000     band energies (ev):

   -20.8622 -20.7867 -18.2159 -18.2079 -18.1001 -18.0659 -14.7306 -14.6507
   -14.6367 -14.6203 -12.8524 -12.8415 -11.2913 -11.2894 -10.4087 -10.4009
   -10.0375 -10.0261  -9.9475  -9.9282  -8.8356  -8.4103  -7.9505  -7.9403
    -7.8390  -7.8369  -6.0994  -6.0079  -5.7328  -5.5287

     occupation numbers 
     1.0000   1.0000   1.0000   1.0000   1.0000   1.0000   1.0000   1.0000
     1.0000   1.0000   1.0000   1.0000   1.0000   1.0000   1.0000   1.0000
     1.0000   1.0000   1.0000   1.0000   1.0000   1.0000   1.0000   1.0000
     1.0000   1.0000   1.0000   1.0000   1.0000   1.0000

     highest occupied level (ev):    -5.5287

!    total energy              =    -235.23003966 Ry

     total all-electron energy =      -928.399154 Ry
     estimated scf accuracy    <       0.00000535 Ry

     The total energy is the sum of the following terms:
     one-electron contribution =    -782.59270903 Ry
     hartree contribution      =     400.01861487 Ry
     xc contribution           =     -64.76223774 Ry
     ewald contribution        =     286.15173387 Ry
     scf correction            =      -0.00188500 Ry
     one-center paw contrib.   =     -74.04355663 Ry
      -> PAW hartree energy AE =      10.02365483 Ry
      -> PAW hartree energy PS =     -10.01455521 Ry
      -> PAW xc energy AE      =     -10.80465302 Ry
      -> PAW xc energy PS      =       4.62498670 Ry
      -> total E_H with PAW    =     400.02771448 Ry
      -> total E_XC with PAW   =     -70.94190406 Ry

     iteration #  7     ecut=    60.00 Ry     beta= 0.70
     Davidson diagonalization with overlap
     ethr =  8.92E-09,  avg # of iterations =  5.0

     negative rho (up, down):  2.278E-04 0.000E+00

     total cpu time spent up to now is       18.3 secs

          k = 0.0000 0.0000 0.0000     band energies (ev):

   -20.8623 -20.7873 -18.2165 -18.2088 -18.0996 -18.0668 -14.7311 -14.6513
   -14.6374 -14.6208 -12.8529 -12.8423 -11.2919 -11.2907 -10.4086 -10.4020
   -10.0386 -10.0268  -9.9472  -9.9295  -8.8349  -8.4111  -7.9506  -7.9416
    -7.8401  -7.8371  -6.1003  -6.0077  -5.7327  -5.5284

     occupation numbers 
     1.0000   1.0000   1.0000   1.0000   1.0000   1.0000   1.0000   1.0000
     1.0000   1.0000   1.0000   1.0000   1.0000   1.0000   1.0000   1.0000
     1.0000   1.0000   1.0000   1.0000   1.0000   1.0000   1.0000   1.0000
     1.0000   1.0000   1.0000   1.0000   1.0000   1.0000

     highest occupied level (ev):    -5.5284

!    total energy              =    -235.23004126 Ry

     total all-electron energy =      -928.399156 Ry
     estimated scf accuracy    <       0.00000126 Ry

     The total energy is the sum of the following terms:
     one-electron contribution =    -782.58798671 Ry
     hartree contribution      =     400.01503021 Ry
     xc contribution           =     -64.76163310 Ry
     ewald contribution        =     286.15173387 Ry
     scf correction            =      -0.00387756 Ry
     one-center paw contrib.   =     -74.04330796 Ry
      -> PAW hartree energy AE =      10.02647433 Ry
      -> PAW hartree energy PS =     -10.01737587 Ry
      -> PAW xc energy AE      =     -10.80529249 Ry
      -> PAW xc energy PS      =       4.62564370 Ry
      -> total E_H with PAW    =     400.02412867 Ry
      -> total E_XC with PAW   =     -70.94128189 Ry

     iteration #  8     ecut=    60.00 Ry     beta= 0.70
     Davidson diagonalization with overlap
     ethr =  2.10E-09,  avg # of iterations =  4.0

     negative rho (up, down):  2.278E-04 0.000E+00

     total cpu time spent up to now is       19.1 secs

          k = 0.0000 0.0000 0.0000     band energies (ev):

   -20.8631 -20.7879 -18.2172 -18.2097 -18.1004 -18.0677 -14.7320 -14.6522
   -14.6383 -14.6216 -12.8536 -12.8431 -11.2927 -11.2916 -10.4094 -10.4030
   -10.0395 -10.0274  -9.9480  -9.9304  -8.8359  -8.4114  -7.9515  -7.9425
    -7.8410  -7.8379  -6.1007  -6.0086  -5.7333  -5.5294

     occupation numbers 
     1.0000   1.0000   1.0000   1.0000   1.0000   1.0000   1.0000   1.0000
     1.0000   1.0000   1.0000   1.0000   1.0000   1.0000   1.0000   1.0000
     1.0000   1.0000   1.0000   1.0000   1.0000   1.0000   1.0000   1.0000
     1.0000   1.0000   1.0000   1.0000   1.0000   1.0000

     highest occupied level (ev):    -5.5294

!    total energy              =    -235.23004146 Ry

     total all-electron energy =      -928.399156 Ry
     estimated scf accuracy    <       0.00000010 Ry

     The total energy is the sum of the following terms:
     one-electron contribution =    -782.59240416 Ry
     hartree contribution      =     400.01559741 Ry
     xc contribution           =     -64.76170005 Ry
     ewald contribution        =     286.15173387 Ry
     scf correction            =       0.00002200 Ry
     one-center paw contrib.   =     -74.04329054 Ry
      -> PAW hartree energy AE =      10.02739560 Ry
      -> PAW hartree energy PS =     -10.01829650 Ry
      -> PAW xc energy AE      =     -10.80551045 Ry
      -> PAW xc energy PS      =       4.62585722 Ry
      -> total E_H with PAW    =     400.02469652 Ry
      -> total E_XC with PAW   =     -70.94135328 Ry

     iteration #  9     ecut=    60.00 Ry     beta= 0.70
     Davidson diagonalization with overlap
     ethr =  1.64E-10,  avg # of iterations =  4.0

     negative rho (up, down):  2.277E-04 0.000E+00

     total cpu time spent up to now is       19.8 secs

     End of self-consistent calculation

          k = 0.0000 0.0000 0.0000 (178925 PWs)   bands (ev):

   -20.8629 -20.7877 -18.2170 -18.2095 -18.1005 -18.0675 -14.7319 -14.6521
   -14.6382 -14.6216 -12.8535 -12.8429 -11.2927 -11.2914 -10.4095 -10.4028
   -10.0392 -10.0272  -9.9481  -9.9301  -8.8357  -8.4113  -7.9515  -7.9423
    -7.8408  -7.8378  -6.1006  -6.0085  -5.7334  -5.5292

     occupation numbers 
     1.0000   1.0000   1.0000   1.0000   1.0000   1.0000   1.0000   1.0000
     1.0000   1.0000   1.0000   1.0000   1.0000   1.0000   1.0000   1.0000
     1.0000   1.0000   1.0000   1.0000   1.0000   1.0000   1.0000   1.0000
     1.0000   1.0000   1.0000   1.0000   1.0000   1.0000

     highest occupied level (ev):    -5.5292

!    total energy              =    -235.23004149 Ry

     total all-electron energy =      -928.399156 Ry
     estimated scf accuracy    <          9.6E-09 Ry

     The total energy is the sum of the following terms:
     one-electron contribution =    -782.59197687 Ry
     hartree contribution      =     400.01517848 Ry
     xc contribution           =     -64.76169927 Ry
     ewald contribution        =     286.15173387 Ry
     one-center paw contrib.   =     -74.04327770 Ry
      -> PAW hartree energy AE =      10.02733694 Ry
      -> PAW hartree energy PS =     -10.01823817 Ry
      -> PAW xc energy AE      =     -10.80549328 Ry
      -> PAW xc energy PS      =       4.62584340 Ry
      -> total E_H with PAW    =     400.02427725 Ry
      -> total E_XC with PAW   =     -70.94134914 Ry

     convergence has been achieved in   9 iterations

     Writing output data file ./tmp/ben2.save/
 
     init_run     :      6.83s CPU     10.06s WALL (       1 calls)
     electrons    :      6.64s CPU      8.18s WALL (       1 calls)

     Called by init_run:
     wfcinit      :      0.16s CPU      1.34s WALL (       1 calls)
     wfcinit:atom :      0.00s CPU      0.00s WALL (       1 calls)
     wfcinit:wfcr :      0.15s CPU      1.33s WALL (       1 calls)
     potinit      :      1.44s CPU      2.17s WALL (       1 calls)
     hinit0       :      0.71s CPU      1.40s WALL (       1 calls)

     Called by electrons:
     c_bands      :      2.80s CPU      3.27s WALL (       9 calls)
     sum_band     :      1.31s CPU      1.60s WALL (       9 calls)
     v_of_rho     :      1.86s CPU      2.03s WALL (      10 calls)
     v_h          :      0.11s CPU      0.14s WALL (      10 calls)
     v_xc         :      1.75s CPU      1.90s WALL (      10 calls)
     newd         :      0.67s CPU      1.44s WALL (      10 calls)
     PAW_pot      :      0.20s CPU      0.80s WALL (      10 calls)
     mix_rho      :      0.21s CPU      0.27s WALL (       9 calls)

     Called by c_bands:
     init_us_2    :      0.03s CPU      0.04s WALL (      19 calls)
     cegterg      :      2.76s CPU      3.22s WALL (       9 calls)

     Called by sum_band:
     sum_band:wei :      0.00s CPU      0.00s WALL (       9 calls)
     sum_band:loo :      0.35s CPU      0.37s WALL (       9 calls)
     sum_band:buf :      0.00s CPU      0.00s WALL (       9 calls)
     sum_band:ini :      0.02s CPU      0.02s WALL (       9 calls)
     sum_band:cal :      0.04s CPU      0.04s WALL (       9 calls)
     sum_band:bec :      0.00s CPU      0.00s WALL (       9 calls)
     addusdens    :      0.82s CPU      1.08s WALL (       9 calls)
     addusd:skk   :      0.09s CPU      0.13s WALL (      18 calls)
     addusd:dgemm :      0.47s CPU      0.69s WALL (      18 calls)
     addusd:qvan2 :      0.19s CPU      0.19s WALL (      18 calls)

     Called by *egterg:
     cdiaghg      :      0.06s CPU      1.30s WALL (      44 calls)
     cegterg:over :      0.10s CPU      0.10s WALL (      35 calls)
     cegterg:upda :      0.04s CPU      0.04s WALL (      35 calls)
     cegterg:last :      0.10s CPU      0.11s WALL (      25 calls)
     h_psi        :      2.35s CPU      2.56s WALL (      45 calls)
     s_psi        :      0.16s CPU      0.16s WALL (      45 calls)
     g_psi        :      0.00s CPU      0.00s WALL (      35 calls)

     Called by h_psi:
     h_psi:calbec :      0.16s CPU      0.31s WALL (      45 calls)
     vloc_psi     :      2.01s CPU      2.06s WALL (      45 calls)
     add_vuspsi   :      0.17s CPU      0.18s WALL (      45 calls)

     General routines
     calbec       :      0.20s CPU      0.35s WALL (      54 calls)
     fft          :      2.18s CPU      2.97s WALL (     128 calls)
     ffts         :      0.06s CPU      0.07s WALL (      19 calls)
     fftw         :      2.15s CPU      2.20s WALL (    2186 calls)
     interpolate  :      0.12s CPU      0.15s WALL (      10 calls)
 
     Parallel routines
     fft_scatt_xy :      0.24s CPU      0.25s WALL (    2333 calls)
     fft_scatt_yz :      3.25s CPU      3.44s WALL (    2333 calls)

     PAW routines
     PAW_pot      :      0.20s CPU      0.80s WALL (      10 calls)
 
     PWSCF        :     14.29s CPU     21.09s WALL

 
   This run was terminated on:   3:52: 8  23Dec2021            

=------------------------------------------------------------------------------=
   JOB DONE.
=------------------------------------------------------------------------------=
