
     Program PWSCF v.6.6 starts on 23Dec2021 at  3:47:10 

     This program is part of the open-source Quantum ESPRESSO suite
     for quantum simulation of materials; please cite
         "P. Giannozzi et al., J. Phys.:Condens. Matter 21 395502 (2009);
         "P. Giannozzi et al., J. Phys.:Condens. Matter 29 465901 (2017);
          URL http://www.quantum-espresso.org", 
     in publications or presentations arising from this work. More details at
     http://www.quantum-espresso.org/quote

     Parallel version (MPI & OpenMP), running on     128 processor cores
     Number of MPI processes:               128
     Threads/MPI process:                     1

     MPI processes distributed on     1 nodes
     R & G space division:  proc/nbgrp/npool/nimage =     128
     Fft bands division:     nmany     =       1
     Waiting for input...
     Reading input from standard input

     Current dimensions of program PWSCF are:
     Max number of different atomic species (ntypx) = 10
     Max number of k-points (npk) =  40000
     Max angular momentum in pseudopotentials (lmaxx) =  3
     Message from routine iosys:
     restart disabled: needed files not found
     file C.pbe-n-kjpaw_psl.1.0.0.UPF: wavefunction(s)  2S 2P renormalized
     file H.pbe-kjpaw_psl.1.0.0.UPF: wavefunction(s)  1S renormalized

     Subspace diagonalization in iterative solution of the eigenvalue problem:
     a serial algorithm will be used

 
     Parallelization info
     --------------------
     sticks:   dense  smooth     PW     G-vecs:    dense   smooth      PW
     Min         299     119     29                44165    11165    1391
     Max         300     120     30                44172    11174    1402
     Sum       38393   15329   3833              5653693  1429635  178925
 


     bravais-lattice index     =            0
     lattice parameter (alat)  =      28.3459  a.u.
     unit-cell volume          =   22775.6289 (a.u.)^3
     number of atoms/cell      =           24
     number of atomic types    =            2
     number of electrons       =        60.00
     number of Kohn-Sham states=           30
     kinetic-energy cutoff     =      60.0000  Ry
     charge density cutoff     =     600.0000  Ry
     convergence threshold     =      1.0E-08
     mixing beta               =       0.7000
     number of iterations used =            8  plain     mixing
     Exchange-correlation= SLA PW PBX PBC
                           (   1   4   3   4   0   0   0)

     celldm(1)=  28.345892  celldm(2)=   0.000000  celldm(3)=   0.000000
     celldm(4)=   0.000000  celldm(5)=   0.000000  celldm(6)=   0.000000

     crystal axes: (cart. coord. in units of alat)
               a(1) = (   1.000000   0.000000   0.000000 )  
               a(2) = (   0.000000   1.000000   0.000000 )  
               a(3) = (   0.000000   0.000000   1.000000 )  

     reciprocal axes: (cart. coord. in units 2 pi/alat)
               b(1) = (  1.000000  0.000000  0.000000 )  
               b(2) = (  0.000000  1.000000  0.000000 )  
               b(3) = (  0.000000  0.000000  1.000000 )  


     PseudoPot. # 1 for C  read from file:
     /home/k0151/k015124/src/pseudo/C.pbe-n-kjpaw_psl.1.0.0.UPF
     MD5 check sum: 5f16ad9a65e90284d1d834d4ab3b0f7d
     Pseudo is Projector augmented-wave + core cor, Zval =  4.0
     Generated using "atomic" code by A. Dal Corso v.6.3
     Shape of augmentation charge: PSQ
     Using radial grid of 1073 points,  4 beta functions with: 
                l(1) =   0
                l(2) =   0
                l(3) =   1
                l(4) =   1
     Q(r) pseudized with 0 coefficients 


     PseudoPot. # 2 for H  read from file:
     /home/k0151/k015124/src/pseudo/H.pbe-kjpaw_psl.1.0.0.UPF
     MD5 check sum: d81a744832360e4a8af0b0b5b123bc2a
     Pseudo is Projector augmented-wave, Zval =  1.0
     Generated using "atomic" code by A. Dal Corso v.6.3MaX
     Shape of augmentation charge: PSQ
     Using radial grid of  929 points,  2 beta functions with: 
                l(1) =   0
                l(2) =   0
     Q(r) pseudized with 0 coefficients 


     atomic species   valence    mass     pseudopotential
        C              4.00    12.01100     C ( 1.00)
        H              1.00     1.00800     H ( 1.00)

     No symmetry found


                                    s                        frac. trans.

      isym =  1     identity                                     

 cryst.   s( 1) = (     1          0          0      )
                  (     0          1          0      )
                  (     0          0          1      )

 cart.    s( 1) = (  1.0000000  0.0000000  0.0000000 )
                  (  0.0000000  1.0000000  0.0000000 )
                  (  0.0000000  0.0000000  1.0000000 )


   Cartesian axes

     site n.     atom                  positions (alat units)
         1           C   tau(   1) = (   0.5926667   0.5000000   0.5000000  )
         2           C   tau(   2) = (   0.5466667   0.4200000   0.5000000  )
         3           C   tau(   3) = (   0.4533333   0.4200000   0.5000000  )
         4           C   tau(   4) = (   0.4073333   0.5000000   0.5000000  )
         5           C   tau(   5) = (   0.4533333   0.5800000   0.5000000  )
         6           C   tau(   6) = (   0.5466667   0.5800000   0.5000000  )
         7           H   tau(   7) = (   0.6593333   0.5000000   0.5000000  )
         8           H   tau(   8) = (   0.5800000   0.3620000   0.5000000  )
         9           H   tau(   9) = (   0.4200000   0.3620000   0.5000000  )
        10           H   tau(  10) = (   0.3406667   0.5000000   0.5000000  )
        11           H   tau(  11) = (   0.4200000   0.6380000   0.5000000  )
        12           H   tau(  12) = (   0.5800000   0.6380000   0.5000000  )
        13           C   tau(  13) = (   0.7800000   0.5466667   0.7000000  )
        14           C   tau(  14) = (   0.7800000   0.4533333   0.7000000  )
        15           C   tau(  15) = (   0.7000000   0.4073333   0.7000000  )
        16           C   tau(  16) = (   0.6200000   0.4533333   0.7000000  )
        17           C   tau(  17) = (   0.6200000   0.5466667   0.7000000  )
        18           C   tau(  18) = (   0.7000000   0.5926667   0.7000000  )
        19           H   tau(  19) = (   0.8380000   0.5800000   0.7000000  )
        20           H   tau(  20) = (   0.8380000   0.4200000   0.7000000  )
        21           H   tau(  21) = (   0.7000000   0.3406667   0.7000000  )
        22           H   tau(  22) = (   0.5620000   0.4206667   0.7000000  )
        23           H   tau(  23) = (   0.5620000   0.5800000   0.7000000  )
        24           H   tau(  24) = (   0.7000000   0.6593333   0.7000000  )

   Crystallographic axes

     site n.     atom                  positions (cryst. coord.)
         1           C   tau(   1) = (  0.5926667  0.5000000  0.5000000  )
         2           C   tau(   2) = (  0.5466667  0.4200000  0.5000000  )
         3           C   tau(   3) = (  0.4533333  0.4200000  0.5000000  )
         4           C   tau(   4) = (  0.4073333  0.5000000  0.5000000  )
         5           C   tau(   5) = (  0.4533333  0.5800000  0.5000000  )
         6           C   tau(   6) = (  0.5466667  0.5800000  0.5000000  )
         7           H   tau(   7) = (  0.6593333  0.5000000  0.5000000  )
         8           H   tau(   8) = (  0.5800000  0.3620000  0.5000000  )
         9           H   tau(   9) = (  0.4200000  0.3620000  0.5000000  )
        10           H   tau(  10) = (  0.3406667  0.5000000  0.5000000  )
        11           H   tau(  11) = (  0.4200000  0.6380000  0.5000000  )
        12           H   tau(  12) = (  0.5800000  0.6380000  0.5000000  )
        13           C   tau(  13) = (  0.7800000  0.5466667  0.7000000  )
        14           C   tau(  14) = (  0.7800000  0.4533333  0.7000000  )
        15           C   tau(  15) = (  0.7000000  0.4073333  0.7000000  )
        16           C   tau(  16) = (  0.6200000  0.4533333  0.7000000  )
        17           C   tau(  17) = (  0.6200000  0.5466667  0.7000000  )
        18           C   tau(  18) = (  0.7000000  0.5926667  0.7000000  )
        19           H   tau(  19) = (  0.8380000  0.5800000  0.7000000  )
        20           H   tau(  20) = (  0.8380000  0.4200000  0.7000000  )
        21           H   tau(  21) = (  0.7000000  0.3406667  0.7000000  )
        22           H   tau(  22) = (  0.5620000  0.4206667  0.7000000  )
        23           H   tau(  23) = (  0.5620000  0.5800000  0.7000000  )
        24           H   tau(  24) = (  0.7000000  0.6593333  0.7000000  )

     number of k points=     1
                       cart. coord. in units 2pi/alat
        k(    1) = (   0.0000000   0.0000000   0.0000000), wk =   2.0000000

                       cryst. coord.
        k(    1) = (   0.0000000   0.0000000   0.0000000), wk =   2.0000000

     Dense  grid:  5653693 G-vectors     FFT dimensions: ( 225, 225, 225)

     Smooth grid:  1429635 G-vectors     FFT dimensions: ( 144, 144, 144)

     Dynamical RAM for                 wfc:       0.64 MB

     Dynamical RAM for     wfc (w. buffer):       0.64 MB

     Dynamical RAM for           str. fact:       1.35 MB

     Dynamical RAM for           local pot:       0.00 MB

     Dynamical RAM for          nlocal pot:       2.56 MB

     Dynamical RAM for                qrad:       1.12 MB

     Dynamical RAM for          rho,v,vnew:       4.34 MB

     Dynamical RAM for               rhoin:       1.45 MB

     Dynamical RAM for            rho*nmix:      10.78 MB

     Dynamical RAM for           G-vectors:       2.61 MB

     Dynamical RAM for          h,s,v(r/c):       0.16 MB

     Dynamical RAM for          <psi|beta>:       0.05 MB

     Dynamical RAM for                 psi:       1.28 MB

     Dynamical RAM for                hpsi:       1.28 MB

     Dynamical RAM for                spsi:       1.28 MB

     Dynamical RAM for      wfcinit/wfcrot:       1.30 MB

     Dynamical RAM for           addusdens:      37.07 MB

     Estimated static dynamical RAM per process >      30.73 MB

     Estimated max dynamical RAM per process >      86.27 MB

     Estimated total dynamical RAM >      10.78 GB
     Cannot read rho : file not found

     Initial potential from superposition of free atoms

     starting charge   59.99939, renormalised to   60.00000

     negative rho (up, down):  1.209E-04 0.000E+00
     Message from routine qexsd_readschema :
     xml data file ./tmp/ben2.save/data-file-schema.xml not found
     Cannot read wfcs: file not found
     Starting wfcs are   60 randomized atomic wfcs
     Checking if some PAW data can be deallocated... 
       PAW data deallocated on   62 nodes for type:  1
       PAW data deallocated on   66 nodes for type:  2

     total cpu time spent up to now is       11.3 secs

     Self-consistent Calculation

     iteration #  1     ecut=    60.00 Ry     beta= 0.70
     Davidson diagonalization with overlap
     ethr =  1.00E-05,  avg # of iterations =  7.0

     negative rho (up, down):  2.069E-04 0.000E+00

     total cpu time spent up to now is       12.9 secs

          k = 0.0000 0.0000 0.0000     band energies (ev):

   -26.8916 -26.8275 -24.1940 -24.1778 -24.0071 -24.0021 -20.5825 -20.5146
   -20.4641 -20.4433 -18.3997 -18.3839 -16.8630 -16.8586 -16.6401 -16.6266
   -15.8355 -15.8344 -15.7060 -15.6869 -13.9146 -13.8934 -13.7999 -13.7939
   -13.6474 -13.2663 -10.9988 -10.8765 -10.6271 -10.4798

     occupation numbers 
     1.0000   1.0000   1.0000   1.0000   1.0000   1.0000   1.0000   1.0000
     1.0000   1.0000   1.0000   1.0000   1.0000   1.0000   1.0000   1.0000
     1.0000   1.0000   1.0000   1.0000   1.0000   1.0000   1.0000   1.0000
     1.0000   1.0000   1.0000   1.0000   1.0000   1.0000

     highest occupied level (ev):   -10.4798

!    total energy              =    -234.40983377 Ry

     total all-electron energy =      -927.578948 Ry
     estimated scf accuracy    <       3.38164251 Ry

     The total energy is the sum of the following terms:
     one-electron contribution =    -805.90584734 Ry
     hartree contribution      =     409.71001188 Ry
     xc contribution           =     -65.28333386 Ry
     ewald contribution        =     289.47538429 Ry
     scf correction            =      11.88195634 Ry
     one-center paw contrib.   =     -74.28800509 Ry
      -> PAW hartree energy AE =       9.23760331 Ry
      -> PAW hartree energy PS =      -9.22663778 Ry
      -> PAW xc energy AE      =     -10.64385559 Ry
      -> PAW xc energy PS      =       4.44193219 Ry
      -> total E_H with PAW    =     409.72097741 Ry
      -> total E_XC with PAW   =     -71.48525726 Ry

     iteration #  2     ecut=    60.00 Ry     beta= 0.70
     Davidson diagonalization with overlap
     ethr =  5.64E-03,  avg # of iterations =  2.0

     negative rho (up, down):  2.430E-04 0.000E+00

     total cpu time spent up to now is       14.2 secs

          k = 0.0000 0.0000 0.0000     band energies (ev):

   -18.9652 -18.8700 -16.7201 -16.6697 -16.6423 -16.5144 -13.6156 -13.5131
   -13.5018 -13.4809 -11.6889 -11.6812 -10.7824 -10.7809  -8.6959  -8.6487
    -8.6393  -8.5972  -8.5894  -8.5506  -7.2612  -6.8025  -6.6298  -6.6177
    -6.5186  -6.5110  -4.5980  -4.5428  -4.2181  -3.8495

     occupation numbers 
     1.0000   1.0000   1.0000   1.0000   1.0000   1.0000   1.0000   1.0000
     1.0000   1.0000   1.0000   1.0000   1.0000   1.0000   1.0000   1.0000
     1.0000   1.0000   1.0000   1.0000   1.0000   1.0000   1.0000   1.0000
     1.0000   1.0000   1.0000   1.0000   1.0000   1.0000

     highest occupied level (ev):    -3.8495

!    total energy              =    -235.13486954 Ry

     total all-electron energy =      -928.303984 Ry
     estimated scf accuracy    <       0.49338857 Ry

     The total energy is the sum of the following terms:
     one-electron contribution =    -781.66280101 Ry
     hartree contribution      =     401.77418414 Ry
     xc contribution           =     -64.55923171 Ry
     ewald contribution        =     289.47538429 Ry
     scf correction            =      -6.03838797 Ry
     one-center paw contrib.   =     -74.12401729 Ry
      -> PAW hartree energy AE =       9.31599611 Ry
      -> PAW hartree energy PS =      -9.30646873 Ry
      -> PAW xc energy AE      =     -10.64457182 Ry
      -> PAW xc energy PS      =       4.45812238 Ry
      -> total E_H with PAW    =     401.78371152 Ry
      -> total E_XC with PAW   =     -70.74568114 Ry

     iteration #  3     ecut=    60.00 Ry     beta= 0.70
     Davidson diagonalization with overlap
     ethr =  8.22E-04,  avg # of iterations =  2.0

     negative rho (up, down):  2.250E-04 0.000E+00

     total cpu time spent up to now is       14.9 secs

          k = 0.0000 0.0000 0.0000     band energies (ev):

   -21.2993 -21.2057 -18.5917 -18.5575 -18.4442 -18.4234 -15.0495 -14.9525
   -14.9468 -14.9280 -13.2086 -13.1950 -11.5617 -11.5598 -10.7546 -10.7469
   -10.4131 -10.4054 -10.3152 -10.3140  -9.1949  -8.7089  -8.2879  -8.2841
    -8.1798  -8.1771  -6.4408  -6.3147  -6.0130  -5.7934

     occupation numbers 
     1.0000   1.0000   1.0000   1.0000   1.0000   1.0000   1.0000   1.0000
     1.0000   1.0000   1.0000   1.0000   1.0000   1.0000   1.0000   1.0000
     1.0000   1.0000   1.0000   1.0000   1.0000   1.0000   1.0000   1.0000
     1.0000   1.0000   1.0000   1.0000   1.0000   1.0000

     highest occupied level (ev):    -5.7934

!    total energy              =    -235.22512194 Ry

     total all-electron energy =      -928.394237 Ry
     estimated scf accuracy    <       0.01371026 Ry

     The total energy is the sum of the following terms:
     one-electron contribution =    -789.72310477 Ry
     hartree contribution      =     403.09239903 Ry
     xc contribution           =     -64.74635471 Ry
     ewald contribution        =     289.47538429 Ry
     scf correction            =       0.73322374 Ry
     one-center paw contrib.   =     -74.05666954 Ry
      -> PAW hartree energy AE =       9.86593611 Ry
      -> PAW hartree energy PS =      -9.85677402 Ry
      -> PAW xc energy AE      =     -10.76893718 Ry
      -> PAW xc energy PS      =       4.58813902 Ry
      -> total E_H with PAW    =     403.10156113 Ry
      -> total E_XC with PAW   =     -70.92715287 Ry

     iteration #  4     ecut=    60.00 Ry     beta= 0.70
     Davidson diagonalization with overlap
     ethr =  2.29E-05,  avg # of iterations =  2.0

     negative rho (up, down):  2.277E-04 0.000E+00

     total cpu time spent up to now is       15.7 secs

          k = 0.0000 0.0000 0.0000     band energies (ev):

   -20.9441 -20.8523 -18.2879 -18.2786 -18.1593 -18.1139 -14.7922 -14.6952
   -14.6890 -14.6696 -12.8997 -12.8877 -11.3214 -11.3194 -10.4792 -10.4719
   -10.0933 -10.0787  -9.9964  -9.9752  -8.9237  -8.4501  -8.0016  -7.9924
    -7.8896  -7.8861  -6.1916  -6.0827  -5.7794  -5.5308

     occupation numbers 
     1.0000   1.0000   1.0000   1.0000   1.0000   1.0000   1.0000   1.0000
     1.0000   1.0000   1.0000   1.0000   1.0000   1.0000   1.0000   1.0000
     1.0000   1.0000   1.0000   1.0000   1.0000   1.0000   1.0000   1.0000
     1.0000   1.0000   1.0000   1.0000   1.0000   1.0000

     highest occupied level (ev):    -5.5308

!    total energy              =    -235.22685260 Ry

     total all-electron energy =      -928.395967 Ry
     estimated scf accuracy    <       0.00052056 Ry

     The total energy is the sum of the following terms:
     one-electron contribution =    -789.44068236 Ry
     hartree contribution      =     403.35532811 Ry
     xc contribution           =     -64.77397789 Ry
     ewald contribution        =     289.47538429 Ry
     scf correction            =       0.20366331 Ry
     one-center paw contrib.   =     -74.04656806 Ry
      -> PAW hartree energy AE =       9.98739474 Ry
      -> PAW hartree energy PS =      -9.97827694 Ry
      -> PAW xc energy AE      =     -10.79649232 Ry
      -> PAW xc energy PS      =       4.61654523 Ry
      -> total E_H with PAW    =     403.36444591 Ry
      -> total E_XC with PAW   =     -70.95392498 Ry

     iteration #  5     ecut=    60.00 Ry     beta= 0.70
     Davidson diagonalization with overlap
     ethr =  8.68E-07,  avg # of iterations =  4.0

     negative rho (up, down):  2.282E-04 0.000E+00

     total cpu time spent up to now is       16.5 secs

          k = 0.0000 0.0000 0.0000     band energies (ev):

   -20.8671 -20.7736 -18.2234 -18.2089 -18.0957 -18.0542 -14.7404 -14.6428
   -14.6366 -14.6175 -12.8497 -12.8383 -11.2916 -11.2894 -10.4075 -10.4000
   -10.0333 -10.0219  -9.9426  -9.9249  -8.8629  -8.3844  -7.9480  -7.9384
    -7.8361  -7.8324  -6.1327  -6.0218  -5.7180  -5.4732

     occupation numbers 
     1.0000   1.0000   1.0000   1.0000   1.0000   1.0000   1.0000   1.0000
     1.0000   1.0000   1.0000   1.0000   1.0000   1.0000   1.0000   1.0000
     1.0000   1.0000   1.0000   1.0000   1.0000   1.0000   1.0000   1.0000
     1.0000   1.0000   1.0000   1.0000   1.0000   1.0000

     highest occupied level (ev):    -5.4732

!    total energy              =    -235.22702139 Ry

     total all-electron energy =      -928.396136 Ry
     estimated scf accuracy    <       0.00002279 Ry

     The total energy is the sum of the following terms:
     one-electron contribution =    -789.22968252 Ry
     hartree contribution      =     403.34308890 Ry
     xc contribution           =     -64.77043598 Ry
     ewald contribution        =     289.47538429 Ry
     scf correction            =      -0.00124347 Ry
     one-center paw contrib.   =     -74.04413261 Ry
      -> PAW hartree energy AE =      10.02034974 Ry
      -> PAW hartree energy PS =     -10.01124296 Ry
      -> PAW xc energy AE      =     -10.80397408 Ry
      -> PAW xc energy PS      =       4.62421942 Ry
      -> total E_H with PAW    =     403.35219567 Ry
      -> total E_XC with PAW   =     -70.95019063 Ry

     iteration #  6     ecut=    60.00 Ry     beta= 0.70
     Davidson diagonalization with overlap
     ethr =  3.80E-08,  avg # of iterations =  5.0

     negative rho (up, down):  2.280E-04 0.000E+00

     total cpu time spent up to now is       17.2 secs

          k = 0.0000 0.0000 0.0000     band energies (ev):

   -20.8729 -20.7791 -18.2269 -18.2111 -18.0990 -18.0563 -14.7415 -14.6437
   -14.6376 -14.6186 -12.8540 -12.8419 -11.2929 -11.2896 -10.4098 -10.4005
   -10.0379 -10.0281  -9.9485  -9.9290  -8.8658  -8.3862  -7.9518  -7.9406
    -7.8382  -7.8361  -6.1340  -6.0235  -5.7199  -5.4755

     occupation numbers 
     1.0000   1.0000   1.0000   1.0000   1.0000   1.0000   1.0000   1.0000
     1.0000   1.0000   1.0000   1.0000   1.0000   1.0000   1.0000   1.0000
     1.0000   1.0000   1.0000   1.0000   1.0000   1.0000   1.0000   1.0000
     1.0000   1.0000   1.0000   1.0000   1.0000   1.0000

     highest occupied level (ev):    -5.4755

!    total energy              =    -235.22702794 Ry

     total all-electron energy =      -928.396143 Ry
     estimated scf accuracy    <       0.00000455 Ry

     The total energy is the sum of the following terms:
     one-electron contribution =    -789.22566858 Ry
     hartree contribution      =     403.33898368 Ry
     xc contribution           =     -64.76882171 Ry
     ewald contribution        =     289.47538429 Ry
     scf correction            =      -0.00325023 Ry
     one-center paw contrib.   =     -74.04365538 Ry
      -> PAW hartree energy AE =      10.02538428 Ry
      -> PAW hartree energy PS =     -10.01628077 Ry
      -> PAW xc energy AE      =     -10.80510435 Ry
      -> PAW xc energy PS      =       4.62539283 Ry
      -> total E_H with PAW    =     403.34808719 Ry
      -> total E_XC with PAW   =     -70.94853323 Ry

     iteration #  7     ecut=    60.00 Ry     beta= 0.70
     Davidson diagonalization with overlap
     ethr =  7.58E-09,  avg # of iterations =  5.0

     negative rho (up, down):  2.280E-04 0.000E+00

     total cpu time spent up to now is       18.0 secs

          k = 0.0000 0.0000 0.0000     band energies (ev):

   -20.8735 -20.7801 -18.2280 -18.2123 -18.0990 -18.0576 -14.7423 -14.6447
   -14.6386 -14.6195 -12.8549 -12.8432 -11.2938 -11.2910 -10.4102 -10.4020
   -10.0394 -10.0293  -9.9486  -9.9307  -8.8655  -8.3874  -7.9523  -7.9422
    -7.8396  -7.8367  -6.1353  -6.0236  -5.7201  -5.4756

     occupation numbers 
     1.0000   1.0000   1.0000   1.0000   1.0000   1.0000   1.0000   1.0000
     1.0000   1.0000   1.0000   1.0000   1.0000   1.0000   1.0000   1.0000
     1.0000   1.0000   1.0000   1.0000   1.0000   1.0000   1.0000   1.0000
     1.0000   1.0000   1.0000   1.0000   1.0000   1.0000

     highest occupied level (ev):    -5.4756

!    total energy              =    -235.22702914 Ry

     total all-electron energy =      -928.396144 Ry
     estimated scf accuracy    <       0.00000145 Ry

     The total energy is the sum of the following terms:
     one-electron contribution =    -789.22303828 Ry
     hartree contribution      =     403.33573317 Ry
     xc contribution           =     -64.76831145 Ry
     ewald contribution        =     289.47538429 Ry
     scf correction            =      -0.00338198 Ry
     one-center paw contrib.   =     -74.04341489 Ry
      -> PAW hartree energy AE =      10.02830740 Ry
      -> PAW hartree energy PS =     -10.01920478 Ry
      -> PAW xc energy AE      =     -10.80577026 Ry
      -> PAW xc energy PS      =       4.62607399 Ry
      -> total E_H with PAW    =     403.34483580 Ry
      -> total E_XC with PAW   =     -70.94800773 Ry

     iteration #  8     ecut=    60.00 Ry     beta= 0.70
     Davidson diagonalization with overlap
     ethr =  2.42E-09,  avg # of iterations =  5.0

     negative rho (up, down):  2.280E-04 0.000E+00

     total cpu time spent up to now is       18.8 secs

          k = 0.0000 0.0000 0.0000     band energies (ev):

   -20.8742 -20.7807 -18.2285 -18.2132 -18.0997 -18.0584 -14.7431 -14.6455
   -14.6393 -14.6203 -12.8555 -12.8438 -11.2945 -11.2918 -10.4109 -10.4029
   -10.0402 -10.0299  -9.9493  -9.9315  -8.8665  -8.3876  -7.9531  -7.9430
    -7.8405  -7.8374  -6.1356  -6.0245  -5.7207  -5.4766

     occupation numbers 
     1.0000   1.0000   1.0000   1.0000   1.0000   1.0000   1.0000   1.0000
     1.0000   1.0000   1.0000   1.0000   1.0000   1.0000   1.0000   1.0000
     1.0000   1.0000   1.0000   1.0000   1.0000   1.0000   1.0000   1.0000
     1.0000   1.0000   1.0000   1.0000   1.0000   1.0000

     highest occupied level (ev):    -5.4766

!    total energy              =    -235.22702945 Ry

     total all-electron energy =      -928.396144 Ry
     estimated scf accuracy    <       0.00000016 Ry

     The total energy is the sum of the following terms:
     one-electron contribution =    -789.22805497 Ry
     hartree contribution      =     403.33654098 Ry
     xc contribution           =     -64.76838902 Ry
     ewald contribution        =     289.47538429 Ry
     scf correction            =       0.00089114 Ry
     one-center paw contrib.   =     -74.04340188 Ry
      -> PAW hartree energy AE =      10.02918130 Ry
      -> PAW hartree energy PS =     -10.02007806 Ry
      -> PAW xc energy AE      =     -10.80597686 Ry
      -> PAW xc energy PS      =       4.62627632 Ry
      -> total E_H with PAW    =     403.34564422 Ry
      -> total E_XC with PAW   =     -70.94808956 Ry

     iteration #  9     ecut=    60.00 Ry     beta= 0.70
     Davidson diagonalization with overlap
     ethr =  2.61E-10,  avg # of iterations =  5.0

     negative rho (up, down):  2.280E-04 0.000E+00

     total cpu time spent up to now is       19.5 secs

          k = 0.0000 0.0000 0.0000     band energies (ev):

   -20.8740 -20.7805 -18.2283 -18.2129 -18.0997 -18.0582 -14.7430 -14.6453
   -14.6392 -14.6201 -12.8553 -12.8436 -11.2944 -11.2916 -10.4108 -10.4026
   -10.0399 -10.0296  -9.9494  -9.9312  -8.8662  -8.3875  -7.9530  -7.9428
    -7.8403  -7.8373  -6.1355  -6.0243  -5.7207  -5.4763

     occupation numbers 
     1.0000   1.0000   1.0000   1.0000   1.0000   1.0000   1.0000   1.0000
     1.0000   1.0000   1.0000   1.0000   1.0000   1.0000   1.0000   1.0000
     1.0000   1.0000   1.0000   1.0000   1.0000   1.0000   1.0000   1.0000
     1.0000   1.0000   1.0000   1.0000   1.0000   1.0000

     highest occupied level (ev):    -5.4763

!    total energy              =    -235.22702949 Ry

     total all-electron energy =      -928.396144 Ry
     estimated scf accuracy    <       0.00000001 Ry

     The total energy is the sum of the following terms:
     one-electron contribution =    -789.22708662 Ry
     hartree contribution      =     403.33682779 Ry
     xc contribution           =     -64.76844939 Ry
     ewald contribution        =     289.47538429 Ry
     scf correction            =      -0.00032013 Ry
     one-center paw contrib.   =     -74.04338543 Ry
      -> PAW hartree energy AE =      10.02934914 Ry
      -> PAW hartree energy PS =     -10.02024606 Ry
      -> PAW xc energy AE      =     -10.80601349 Ry
      -> PAW xc energy PS      =       4.62631504 Ry
      -> total E_H with PAW    =     403.34593087 Ry
      -> total E_XC with PAW   =     -70.94814784 Ry

     iteration # 10     ecut=    60.00 Ry     beta= 0.70
     Davidson diagonalization with overlap
     ethr =  1.92E-11,  avg # of iterations =  5.0

     negative rho (up, down):  2.280E-04 0.000E+00

     total cpu time spent up to now is       20.3 secs

     End of self-consistent calculation

          k = 0.0000 0.0000 0.0000 (178925 PWs)   bands (ev):

   -20.8739 -20.7804 -18.2283 -18.2129 -18.0997 -18.0581 -14.7429 -14.6453
   -14.6392 -14.6201 -12.8552 -12.8435 -11.2944 -11.2916 -10.4108 -10.4026
   -10.0398 -10.0295  -9.9493  -9.9311  -8.8662  -8.3875  -7.9530  -7.9427
    -7.8402  -7.8373  -6.1355  -6.0243  -5.7207  -5.4762

     occupation numbers 
     1.0000   1.0000   1.0000   1.0000   1.0000   1.0000   1.0000   1.0000
     1.0000   1.0000   1.0000   1.0000   1.0000   1.0000   1.0000   1.0000
     1.0000   1.0000   1.0000   1.0000   1.0000   1.0000   1.0000   1.0000
     1.0000   1.0000   1.0000   1.0000   1.0000   1.0000

     highest occupied level (ev):    -5.4762

!    total energy              =    -235.22702949 Ry

     total all-electron energy =      -928.396144 Ry
     estimated scf accuracy    <          5.0E-09 Ry

     The total energy is the sum of the following terms:
     one-electron contribution =    -789.22673571 Ry
     hartree contribution      =     403.33612545 Ry
     xc contribution           =     -64.76841474 Ry
     ewald contribution        =     289.47538429 Ry
     one-center paw contrib.   =     -74.04338878 Ry
      -> PAW hartree energy AE =      10.02915539 Ry
      -> PAW hartree energy PS =     -10.02005255 Ry
      -> PAW xc energy AE      =     -10.80596652 Ry
      -> PAW xc energy PS      =       4.62626988 Ry
      -> total E_H with PAW    =     403.34522829 Ry
      -> total E_XC with PAW   =     -70.94811138 Ry

     convergence has been achieved in  10 iterations

     Writing output data file ./tmp/ben2.save/
 
     init_run     :      5.12s CPU      9.46s WALL (       1 calls)
     electrons    :      7.29s CPU      9.36s WALL (       1 calls)

     Called by init_run:
     wfcinit      :      0.26s CPU      1.86s WALL (       1 calls)
     wfcinit:atom :      0.00s CPU      0.00s WALL (       1 calls)
     wfcinit:wfcr :      0.26s CPU      1.85s WALL (       1 calls)
     potinit      :      0.20s CPU      0.57s WALL (       1 calls)
     hinit0       :      0.20s CPU      1.88s WALL (       1 calls)

     Called by electrons:
     c_bands      :      3.06s CPU      4.01s WALL (      10 calls)
     sum_band     :      1.45s CPU      1.77s WALL (      10 calls)
     v_of_rho     :      1.41s CPU      1.58s WALL (      11 calls)
     v_h          :      0.12s CPU      0.13s WALL (      11 calls)
     v_xc         :      1.29s CPU      1.45s WALL (      11 calls)
     newd         :      0.71s CPU      1.59s WALL (      11 calls)
     PAW_pot      :      0.22s CPU      0.46s WALL (      11 calls)
     mix_rho      :      0.25s CPU      0.33s WALL (      10 calls)

     Called by c_bands:
     init_us_2    :      0.04s CPU      0.04s WALL (      21 calls)
     cegterg      :      3.01s CPU      3.95s WALL (      10 calls)

     Called by sum_band:
     sum_band:wei :      0.00s CPU      0.00s WALL (      10 calls)
     sum_band:loo :      0.38s CPU      0.40s WALL (      10 calls)
     sum_band:buf :      0.00s CPU      0.00s WALL (      10 calls)
     sum_band:ini :      0.02s CPU      0.02s WALL (      10 calls)
     sum_band:cal :      0.04s CPU      0.04s WALL (      10 calls)
     sum_band:bec :      0.00s CPU      0.00s WALL (      10 calls)
     addusdens    :      0.91s CPU      1.20s WALL (      10 calls)
     addusd:skk   :      0.10s CPU      0.13s WALL (      20 calls)
     addusd:dgemm :      0.52s CPU      0.75s WALL (      20 calls)
     addusd:qvan2 :      0.21s CPU      0.22s WALL (      20 calls)

     Called by *egterg:
     cdiaghg      :      0.07s CPU      1.86s WALL (      52 calls)
     cegterg:over :      0.11s CPU      0.11s WALL (      42 calls)
     cegterg:upda :      0.05s CPU      0.05s WALL (      42 calls)
     cegterg:last :      0.10s CPU      0.11s WALL (      26 calls)
     h_psi        :      2.65s CPU      3.04s WALL (      53 calls)
     s_psi        :      0.18s CPU      0.18s WALL (      53 calls)
     g_psi        :      0.00s CPU      0.00s WALL (      42 calls)

     Called by h_psi:
     h_psi:calbec :      0.17s CPU      0.48s WALL (      53 calls)
     vloc_psi     :      2.28s CPU      2.35s WALL (      53 calls)
     add_vuspsi   :      0.19s CPU      0.20s WALL (      53 calls)

     General routines
     calbec       :      0.21s CPU      0.52s WALL (      63 calls)
     fft          :      1.13s CPU      2.52s WALL (     141 calls)
     ffts         :      0.06s CPU      0.10s WALL (      21 calls)
     fftw         :      2.42s CPU      2.49s WALL (    2400 calls)
     interpolate  :      0.14s CPU      0.18s WALL (      11 calls)
 
     Parallel routines
     fft_scatt_xy :      0.27s CPU      0.28s WALL (    2562 calls)
     fft_scatt_yz :      2.33s CPU      2.50s WALL (    2562 calls)

     PAW routines
     PAW_pot      :      0.22s CPU      0.46s WALL (      11 calls)
 
     PWSCF        :     13.45s CPU     21.47s WALL

 
   This run was terminated on:   3:47:32  23Dec2021            

=------------------------------------------------------------------------------=
   JOB DONE.
=------------------------------------------------------------------------------=
