
     Program PWSCF v.6.6 starts on 23Dec2021 at  3:56:23 

     This program is part of the open-source Quantum ESPRESSO suite
     for quantum simulation of materials; please cite
         "P. Giannozzi et al., J. Phys.:Condens. Matter 21 395502 (2009);
         "P. Giannozzi et al., J. Phys.:Condens. Matter 29 465901 (2017);
          URL http://www.quantum-espresso.org", 
     in publications or presentations arising from this work. More details at
     http://www.quantum-espresso.org/quote

     Parallel version (MPI & OpenMP), running on     128 processor cores
     Number of MPI processes:               128
     Threads/MPI process:                     1

     MPI processes distributed on     1 nodes
     R & G space division:  proc/nbgrp/npool/nimage =     128
     Fft bands division:     nmany     =       1
     Waiting for input...
     Reading input from standard input

     Current dimensions of program PWSCF are:
     Max number of different atomic species (ntypx) = 10
     Max number of k-points (npk) =  40000
     Max angular momentum in pseudopotentials (lmaxx) =  3
     Message from routine iosys:
     restart disabled: needed files not found
     file C.pbe-n-kjpaw_psl.1.0.0.UPF: wavefunction(s)  2S 2P renormalized
     file H.pbe-kjpaw_psl.1.0.0.UPF: wavefunction(s)  1S renormalized

     Subspace diagonalization in iterative solution of the eigenvalue problem:
     a serial algorithm will be used

 
     Parallelization info
     --------------------
     sticks:   dense  smooth     PW     G-vecs:    dense   smooth      PW
     Min         299     119     29                44165    11165    1391
     Max         300     120     30                44172    11174    1402
     Sum       38393   15329   3833              5653693  1429635  178925
 


     bravais-lattice index     =            0
     lattice parameter (alat)  =      28.3459  a.u.
     unit-cell volume          =   22775.6289 (a.u.)^3
     number of atoms/cell      =           24
     number of atomic types    =            2
     number of electrons       =        60.00
     number of Kohn-Sham states=           30
     kinetic-energy cutoff     =      60.0000  Ry
     charge density cutoff     =     600.0000  Ry
     convergence threshold     =      1.0E-08
     mixing beta               =       0.7000
     number of iterations used =            8  plain     mixing
     Exchange-correlation= SLA PW PBX PBC
                           (   1   4   3   4   0   0   0)

     celldm(1)=  28.345892  celldm(2)=   0.000000  celldm(3)=   0.000000
     celldm(4)=   0.000000  celldm(5)=   0.000000  celldm(6)=   0.000000

     crystal axes: (cart. coord. in units of alat)
               a(1) = (   1.000000   0.000000   0.000000 )  
               a(2) = (   0.000000   1.000000   0.000000 )  
               a(3) = (   0.000000   0.000000   1.000000 )  

     reciprocal axes: (cart. coord. in units 2 pi/alat)
               b(1) = (  1.000000  0.000000  0.000000 )  
               b(2) = (  0.000000  1.000000  0.000000 )  
               b(3) = (  0.000000  0.000000  1.000000 )  


     PseudoPot. # 1 for C  read from file:
     /home/k0151/k015124/src/pseudo/C.pbe-n-kjpaw_psl.1.0.0.UPF
     MD5 check sum: 5f16ad9a65e90284d1d834d4ab3b0f7d
     Pseudo is Projector augmented-wave + core cor, Zval =  4.0
     Generated using "atomic" code by A. Dal Corso v.6.3
     Shape of augmentation charge: PSQ
     Using radial grid of 1073 points,  4 beta functions with: 
                l(1) =   0
                l(2) =   0
                l(3) =   1
                l(4) =   1
     Q(r) pseudized with 0 coefficients 


     PseudoPot. # 2 for H  read from file:
     /home/k0151/k015124/src/pseudo/H.pbe-kjpaw_psl.1.0.0.UPF
     MD5 check sum: d81a744832360e4a8af0b0b5b123bc2a
     Pseudo is Projector augmented-wave, Zval =  1.0
     Generated using "atomic" code by A. Dal Corso v.6.3MaX
     Shape of augmentation charge: PSQ
     Using radial grid of  929 points,  2 beta functions with: 
                l(1) =   0
                l(2) =   0
     Q(r) pseudized with 0 coefficients 


     atomic species   valence    mass     pseudopotential
        C              4.00    12.01100     C ( 1.00)
        H              1.00     1.00800     H ( 1.00)

     No symmetry found


                                    s                        frac. trans.

      isym =  1     identity                                     

 cryst.   s( 1) = (     1          0          0      )
                  (     0          1          0      )
                  (     0          0          1      )

 cart.    s( 1) = (  1.0000000  0.0000000  0.0000000 )
                  (  0.0000000  1.0000000  0.0000000 )
                  (  0.0000000  0.0000000  1.0000000 )


   Cartesian axes

     site n.     atom                  positions (alat units)
         1           C   tau(   1) = (   0.5926667   0.5000000   0.5000000  )
         2           C   tau(   2) = (   0.5466667   0.4200000   0.5000000  )
         3           C   tau(   3) = (   0.4533333   0.4200000   0.5000000  )
         4           C   tau(   4) = (   0.4073333   0.5000000   0.5000000  )
         5           C   tau(   5) = (   0.4533333   0.5800000   0.5000000  )
         6           C   tau(   6) = (   0.5466667   0.5800000   0.5000000  )
         7           H   tau(   7) = (   0.6593333   0.5000000   0.5000000  )
         8           H   tau(   8) = (   0.5800000   0.3620000   0.5000000  )
         9           H   tau(   9) = (   0.4200000   0.3620000   0.5000000  )
        10           H   tau(  10) = (   0.3406667   0.5000000   0.5000000  )
        11           H   tau(  11) = (   0.4200000   0.6380000   0.5000000  )
        12           H   tau(  12) = (   0.5800000   0.6380000   0.5000000  )
        13           C   tau(  13) = (   0.7800000   0.5466667   0.7133333  )
        14           C   tau(  14) = (   0.7800000   0.4533333   0.7133333  )
        15           C   tau(  15) = (   0.7000000   0.4073333   0.7133333  )
        16           C   tau(  16) = (   0.6200000   0.4533333   0.7133333  )
        17           C   tau(  17) = (   0.6200000   0.5466667   0.7133333  )
        18           C   tau(  18) = (   0.7000000   0.5926667   0.7133333  )
        19           H   tau(  19) = (   0.8380000   0.5800000   0.7133333  )
        20           H   tau(  20) = (   0.8380000   0.4200000   0.7133333  )
        21           H   tau(  21) = (   0.7000000   0.3406667   0.7133333  )
        22           H   tau(  22) = (   0.5620000   0.4206667   0.7133333  )
        23           H   tau(  23) = (   0.5620000   0.5800000   0.7133333  )
        24           H   tau(  24) = (   0.7000000   0.6593333   0.7133333  )

   Crystallographic axes

     site n.     atom                  positions (cryst. coord.)
         1           C   tau(   1) = (  0.5926667  0.5000000  0.5000000  )
         2           C   tau(   2) = (  0.5466667  0.4200000  0.5000000  )
         3           C   tau(   3) = (  0.4533333  0.4200000  0.5000000  )
         4           C   tau(   4) = (  0.4073333  0.5000000  0.5000000  )
         5           C   tau(   5) = (  0.4533333  0.5800000  0.5000000  )
         6           C   tau(   6) = (  0.5466667  0.5800000  0.5000000  )
         7           H   tau(   7) = (  0.6593333  0.5000000  0.5000000  )
         8           H   tau(   8) = (  0.5800000  0.3620000  0.5000000  )
         9           H   tau(   9) = (  0.4200000  0.3620000  0.5000000  )
        10           H   tau(  10) = (  0.3406667  0.5000000  0.5000000  )
        11           H   tau(  11) = (  0.4200000  0.6380000  0.5000000  )
        12           H   tau(  12) = (  0.5800000  0.6380000  0.5000000  )
        13           C   tau(  13) = (  0.7800000  0.5466667  0.7133333  )
        14           C   tau(  14) = (  0.7800000  0.4533333  0.7133333  )
        15           C   tau(  15) = (  0.7000000  0.4073333  0.7133333  )
        16           C   tau(  16) = (  0.6200000  0.4533333  0.7133333  )
        17           C   tau(  17) = (  0.6200000  0.5466667  0.7133333  )
        18           C   tau(  18) = (  0.7000000  0.5926667  0.7133333  )
        19           H   tau(  19) = (  0.8380000  0.5800000  0.7133333  )
        20           H   tau(  20) = (  0.8380000  0.4200000  0.7133333  )
        21           H   tau(  21) = (  0.7000000  0.3406667  0.7133333  )
        22           H   tau(  22) = (  0.5620000  0.4206667  0.7133333  )
        23           H   tau(  23) = (  0.5620000  0.5800000  0.7133333  )
        24           H   tau(  24) = (  0.7000000  0.6593333  0.7133333  )

     number of k points=     1
                       cart. coord. in units 2pi/alat
        k(    1) = (   0.0000000   0.0000000   0.0000000), wk =   2.0000000

                       cryst. coord.
        k(    1) = (   0.0000000   0.0000000   0.0000000), wk =   2.0000000

     Dense  grid:  5653693 G-vectors     FFT dimensions: ( 225, 225, 225)

     Smooth grid:  1429635 G-vectors     FFT dimensions: ( 144, 144, 144)

     Dynamical RAM for                 wfc:       0.64 MB

     Dynamical RAM for     wfc (w. buffer):       0.64 MB

     Dynamical RAM for           str. fact:       1.35 MB

     Dynamical RAM for           local pot:       0.00 MB

     Dynamical RAM for          nlocal pot:       2.56 MB

     Dynamical RAM for                qrad:       1.12 MB

     Dynamical RAM for          rho,v,vnew:       4.34 MB

     Dynamical RAM for               rhoin:       1.45 MB

     Dynamical RAM for            rho*nmix:      10.78 MB

     Dynamical RAM for           G-vectors:       2.61 MB

     Dynamical RAM for          h,s,v(r/c):       0.16 MB

     Dynamical RAM for          <psi|beta>:       0.05 MB

     Dynamical RAM for                 psi:       1.28 MB

     Dynamical RAM for                hpsi:       1.28 MB

     Dynamical RAM for                spsi:       1.28 MB

     Dynamical RAM for      wfcinit/wfcrot:       1.30 MB

     Dynamical RAM for           addusdens:      37.07 MB

     Estimated static dynamical RAM per process >      30.73 MB

     Estimated max dynamical RAM per process >      86.27 MB

     Estimated total dynamical RAM >      10.78 GB
     Cannot read rho : file not found

     Initial potential from superposition of free atoms

     starting charge   59.99939, renormalised to   60.00000

     negative rho (up, down):  1.193E-04 0.000E+00
     Message from routine qexsd_readschema :
     xml data file ./tmp/ben2.save/data-file-schema.xml not found
     Cannot read wfcs: file not found
     Starting wfcs are   60 randomized atomic wfcs
     Checking if some PAW data can be deallocated... 
       PAW data deallocated on   62 nodes for type:  1
       PAW data deallocated on   66 nodes for type:  2

     total cpu time spent up to now is        9.9 secs

     Self-consistent Calculation

     iteration #  1     ecut=    60.00 Ry     beta= 0.70
     Davidson diagonalization with overlap
     ethr =  1.00E-05,  avg # of iterations =  7.0

     negative rho (up, down):  2.056E-04 0.000E+00

     total cpu time spent up to now is       11.2 secs

          k = 0.0000 0.0000 0.0000     band energies (ev):

   -26.8738 -26.8345 -24.1799 -24.1731 -24.0087 -23.9995 -20.5643 -20.5233
   -20.4560 -20.4420 -18.3936 -18.3803 -16.8590 -16.8546 -16.6352 -16.6220
   -15.8312 -15.8295 -15.7000 -15.6844 -13.9093 -13.8904 -13.7917 -13.7884
   -13.5855 -13.3051 -10.9301 -10.8479 -10.6388 -10.5485

     occupation numbers 
     1.0000   1.0000   1.0000   1.0000   1.0000   1.0000   1.0000   1.0000
     1.0000   1.0000   1.0000   1.0000   1.0000   1.0000   1.0000   1.0000
     1.0000   1.0000   1.0000   1.0000   1.0000   1.0000   1.0000   1.0000
     1.0000   1.0000   1.0000   1.0000   1.0000   1.0000

     highest occupied level (ev):   -10.5485

!    total energy              =    -234.41164022 Ry

     total all-electron energy =      -927.580755 Ry
     estimated scf accuracy    <       3.38930712 Ry

     The total energy is the sum of the following terms:
     one-electron contribution =    -792.76992514 Ry
     hartree contribution      =     403.13464410 Ry
     xc contribution           =     -65.27817721 Ry
     ewald contribution        =     282.93959987 Ry
     scf correction            =      11.85029382 Ry
     one-center paw contrib.   =     -74.28807567 Ry
      -> PAW hartree energy AE =       9.23770215 Ry
      -> PAW hartree energy PS =      -9.22673664 Ry
      -> PAW xc energy AE      =     -10.64388940 Ry
      -> PAW xc energy PS      =       4.44197050 Ry
      -> total E_H with PAW    =     403.14560961 Ry
      -> total E_XC with PAW   =     -71.48009610 Ry

     iteration #  2     ecut=    60.00 Ry     beta= 0.70
     Davidson diagonalization with overlap
     ethr =  5.65E-03,  avg # of iterations =  2.0

     negative rho (up, down):  2.419E-04 0.000E+00

     total cpu time spent up to now is       12.4 secs

          k = 0.0000 0.0000 0.0000     band energies (ev):

   -18.9525 -18.8879 -16.7126 -16.6610 -16.6493 -16.5566 -13.6046 -13.5315
   -13.5181 -13.4925 -11.6930 -11.6891 -10.7939 -10.7926  -8.6978  -8.6491
    -8.6422  -8.6089  -8.6008  -8.5632  -7.2214  -6.8438  -6.6386  -6.6300
    -6.5324  -6.5262  -4.5460  -4.5179  -4.2468  -3.9828

     occupation numbers 
     1.0000   1.0000   1.0000   1.0000   1.0000   1.0000   1.0000   1.0000
     1.0000   1.0000   1.0000   1.0000   1.0000   1.0000   1.0000   1.0000
     1.0000   1.0000   1.0000   1.0000   1.0000   1.0000   1.0000   1.0000
     1.0000   1.0000   1.0000   1.0000   1.0000   1.0000

     highest occupied level (ev):    -3.9828

!    total energy              =    -235.14025478 Ry

     total all-electron energy =      -928.309369 Ry
     estimated scf accuracy    <       0.49432472 Ry

     The total energy is the sum of the following terms:
     one-electron contribution =    -768.68758935 Ry
     hartree contribution      =     395.26110633 Ry
     xc contribution           =     -64.54747413 Ry
     ewald contribution        =     282.93959987 Ry
     scf correction            =      -5.98207187 Ry
     one-center paw contrib.   =     -74.12382562 Ry
      -> PAW hartree energy AE =       9.31748704 Ry
      -> PAW hartree energy PS =      -9.30795950 Ry
      -> PAW xc energy AE      =     -10.64491469 Ry
      -> PAW xc energy PS      =       4.45847045 Ry
      -> total E_H with PAW    =     395.27063387 Ry
      -> total E_XC with PAW   =     -70.73391838 Ry

     iteration #  3     ecut=    60.00 Ry     beta= 0.70
     Davidson diagonalization with overlap
     ethr =  8.24E-04,  avg # of iterations =  2.0

     negative rho (up, down):  2.244E-04 0.000E+00

     total cpu time spent up to now is       13.2 secs

          k = 0.0000 0.0000 0.0000     band energies (ev):

   -21.2749 -21.2150 -18.5662 -18.5495 -18.4435 -18.4328 -15.0259 -14.9631
   -14.9389 -14.9262 -13.2012 -13.1902 -11.5557 -11.5549 -10.7482 -10.7429
   -10.4031 -10.4019 -10.3104 -10.3076  -9.1299  -8.7519  -8.2820  -8.2791
    -8.1763  -8.1743  -6.3695  -6.2812  -6.0350  -5.8835

     occupation numbers 
     1.0000   1.0000   1.0000   1.0000   1.0000   1.0000   1.0000   1.0000
     1.0000   1.0000   1.0000   1.0000   1.0000   1.0000   1.0000   1.0000
     1.0000   1.0000   1.0000   1.0000   1.0000   1.0000   1.0000   1.0000
     1.0000   1.0000   1.0000   1.0000   1.0000   1.0000

     highest occupied level (ev):    -5.8835

!    total energy              =    -235.23038419 Ry

     total all-electron energy =      -928.399499 Ry
     estimated scf accuracy    <       0.01356375 Ry

     The total energy is the sum of the following terms:
     one-electron contribution =    -776.65091096 Ry
     hartree contribution      =     396.55810963 Ry
     xc contribution           =     -64.73509902 Ry
     ewald contribution        =     282.93959987 Ry
     scf correction            =       0.71419378 Ry
     one-center paw contrib.   =     -74.05627750 Ry
      -> PAW hartree energy AE =       9.86408573 Ry
      -> PAW hartree energy PS =      -9.85493303 Ry
      -> PAW xc energy AE      =     -10.76838890 Ry
      -> PAW xc energy PS      =       4.58769707 Ry
      -> total E_H with PAW    =     396.56726234 Ry
      -> total E_XC with PAW   =     -70.91579085 Ry

     iteration #  4     ecut=    60.00 Ry     beta= 0.70
     Davidson diagonalization with overlap
     ethr =  2.26E-05,  avg # of iterations =  2.0

     negative rho (up, down):  2.271E-04 0.000E+00

     total cpu time spent up to now is       13.9 secs

          k = 0.0000 0.0000 0.0000     band energies (ev):

   -20.9254 -20.8660 -18.2736 -18.2702 -18.1599 -18.1313 -14.7732 -14.7099
   -14.6867 -14.6729 -12.8970 -12.8872 -11.3199 -11.3188 -10.4774 -10.4732
   -10.0923 -10.0756  -9.9939  -9.9747  -8.8675  -8.4957  -7.9994  -7.9926
    -7.8914  -7.8877  -6.1267  -6.0534  -5.8032  -5.6305

     occupation numbers 
     1.0000   1.0000   1.0000   1.0000   1.0000   1.0000   1.0000   1.0000
     1.0000   1.0000   1.0000   1.0000   1.0000   1.0000   1.0000   1.0000
     1.0000   1.0000   1.0000   1.0000   1.0000   1.0000   1.0000   1.0000
     1.0000   1.0000   1.0000   1.0000   1.0000   1.0000

     highest occupied level (ev):    -5.6305

!    total energy              =    -235.23206946 Ry

     total all-electron energy =      -928.401184 Ry
     estimated scf accuracy    <       0.00051103 Ry

     The total energy is the sum of the following terms:
     one-electron contribution =    -776.39440917 Ry
     hartree contribution      =     396.82711150 Ry
     xc contribution           =     -64.76201519 Ry
     ewald contribution        =     282.93959987 Ry
     scf correction            =       0.20395628 Ry
     one-center paw contrib.   =     -74.04631276 Ry
      -> PAW hartree energy AE =       9.98631056 Ry
      -> PAW hartree energy PS =      -9.97720044 Ry
      -> PAW xc energy AE      =     -10.79612896 Ry
      -> PAW xc energy PS      =       4.61626923 Ry
      -> total E_H with PAW    =     396.83622162 Ry
      -> total E_XC with PAW   =     -70.94187492 Ry

     iteration #  5     ecut=    60.00 Ry     beta= 0.70
     Davidson diagonalization with overlap
     ethr =  8.52E-07,  avg # of iterations =  4.0

     negative rho (up, down):  2.278E-04 0.000E+00

     total cpu time spent up to now is       14.7 secs

          k = 0.0000 0.0000 0.0000     band energies (ev):

   -20.8462 -20.7859 -18.2034 -18.2023 -18.0958 -18.0697 -14.7200 -14.6563
   -14.6331 -14.6195 -12.8460 -12.8366 -11.2891 -11.2885 -10.4043 -10.3996
   -10.0314 -10.0176  -9.9395  -9.9225  -8.8039  -8.4289  -7.9447  -7.9373
    -7.8365  -7.8329  -6.0659  -5.9905  -5.7410  -5.5704

     occupation numbers 
     1.0000   1.0000   1.0000   1.0000   1.0000   1.0000   1.0000   1.0000
     1.0000   1.0000   1.0000   1.0000   1.0000   1.0000   1.0000   1.0000
     1.0000   1.0000   1.0000   1.0000   1.0000   1.0000   1.0000   1.0000
     1.0000   1.0000   1.0000   1.0000   1.0000   1.0000

     highest occupied level (ev):    -5.5704

!    total energy              =    -235.23224339 Ry

     total all-electron energy =      -928.401358 Ry
     estimated scf accuracy    <       0.00002332 Ry

     The total energy is the sum of the following terms:
     one-electron contribution =    -776.17220372 Ry
     hartree contribution      =     396.80580238 Ry
     xc contribution           =     -64.75788547 Ry
     ewald contribution        =     282.93959987 Ry
     scf correction            =      -0.00380209 Ry
     one-center paw contrib.   =     -74.04375435 Ry
      -> PAW hartree energy AE =      10.01892405 Ry
      -> PAW hartree energy PS =     -10.00982598 Ry
      -> PAW xc energy AE      =     -10.80353381 Ry
      -> PAW xc energy PS      =       4.62387979 Ry
      -> total E_H with PAW    =     396.81490045 Ry
      -> total E_XC with PAW   =     -70.93753949 Ry

     iteration #  6     ecut=    60.00 Ry     beta= 0.70
     Davidson diagonalization with overlap
     ethr =  3.89E-08,  avg # of iterations =  5.0

     negative rho (up, down):  2.276E-04 0.000E+00

     total cpu time spent up to now is       15.5 secs

          k = 0.0000 0.0000 0.0000     band energies (ev):

   -20.8550 -20.7943 -18.2094 -18.2066 -18.1014 -18.0740 -14.7228 -14.6588
   -14.6354 -14.6223 -12.8520 -12.8422 -11.2906 -11.2900 -10.4090 -10.4023
   -10.0380 -10.0260  -9.9475  -9.9289  -8.8091  -8.4331  -7.9504  -7.9412
    -7.8404  -7.8384  -6.0695  -5.9942  -5.7450  -5.5750

     occupation numbers 
     1.0000   1.0000   1.0000   1.0000   1.0000   1.0000   1.0000   1.0000
     1.0000   1.0000   1.0000   1.0000   1.0000   1.0000   1.0000   1.0000
     1.0000   1.0000   1.0000   1.0000   1.0000   1.0000   1.0000   1.0000
     1.0000   1.0000   1.0000   1.0000   1.0000   1.0000

     highest occupied level (ev):    -5.5750

!    total energy              =    -235.23224915 Ry

     total all-electron energy =      -928.401364 Ry
     estimated scf accuracy    <       0.00000459 Ry

     The total energy is the sum of the following terms:
     one-electron contribution =    -776.18071163 Ry
     hartree contribution      =     396.80666527 Ry
     xc contribution           =     -64.75676399 Ry
     ewald contribution        =     282.93959987 Ry
     scf correction            =       0.00241391 Ry
     one-center paw contrib.   =     -74.04345258 Ry
      -> PAW hartree energy AE =      10.02385276 Ry
      -> PAW hartree energy PS =     -10.01475559 Ry
      -> PAW xc energy AE      =     -10.80466107 Ry
      -> PAW xc energy PS      =       4.62502693 Ry
      -> total E_H with PAW    =     396.81576244 Ry
      -> total E_XC with PAW   =     -70.93639813 Ry

     iteration #  7     ecut=    60.00 Ry     beta= 0.70
     Davidson diagonalization with overlap
     ethr =  7.66E-09,  avg # of iterations =  5.0

     negative rho (up, down):  2.276E-04 0.000E+00

     total cpu time spent up to now is       16.3 secs

          k = 0.0000 0.0000 0.0000     band energies (ev):

   -20.8540 -20.7937 -18.2087 -18.2069 -18.1004 -18.0740 -14.7228 -14.6589
   -14.6356 -14.6222 -12.8519 -12.8423 -11.2911 -11.2909 -10.4080 -10.4026
   -10.0385 -10.0254  -9.9468  -9.9292  -8.8076  -8.4330  -7.9498  -7.9418
    -7.8408  -7.8380  -6.0693  -5.9936  -5.7443  -5.5736

     occupation numbers 
     1.0000   1.0000   1.0000   1.0000   1.0000   1.0000   1.0000   1.0000
     1.0000   1.0000   1.0000   1.0000   1.0000   1.0000   1.0000   1.0000
     1.0000   1.0000   1.0000   1.0000   1.0000   1.0000   1.0000   1.0000
     1.0000   1.0000   1.0000   1.0000   1.0000   1.0000

     highest occupied level (ev):    -5.5736

!    total energy              =    -235.23225067 Ry

     total all-electron energy =      -928.401365 Ry
     estimated scf accuracy    <       0.00000227 Ry

     The total energy is the sum of the following terms:
     one-electron contribution =    -776.17109996 Ry
     hartree contribution      =     396.80362924 Ry
     xc contribution           =     -64.75628666 Ry
     ewald contribution        =     282.93959987 Ry
     scf correction            =      -0.00485058 Ry
     one-center paw contrib.   =     -74.04324257 Ry
      -> PAW hartree energy AE =      10.02530106 Ry
      -> PAW hartree energy PS =     -10.01620572 Ry
      -> PAW xc energy AE      =     -10.80497865 Ry
      -> PAW xc energy PS      =       4.62536647 Ry
      -> total E_H with PAW    =     396.81272457 Ry
      -> total E_XC with PAW   =     -70.93589884 Ry

     iteration #  8     ecut=    60.00 Ry     beta= 0.70
     Davidson diagonalization with overlap
     ethr =  3.78E-09,  avg # of iterations =  5.0

     negative rho (up, down):  2.275E-04 0.000E+00

     total cpu time spent up to now is       17.1 secs

          k = 0.0000 0.0000 0.0000     band energies (ev):

   -20.8546 -20.7942 -18.2094 -18.2076 -18.1008 -18.0749 -14.7235 -14.6597
   -14.6364 -14.6229 -12.8525 -12.8429 -11.2919 -11.2916 -10.4086 -10.4035
   -10.0392 -10.0261  -9.9472  -9.9301  -8.8085  -8.4331  -7.9505  -7.9427
    -7.8417  -7.8386  -6.0698  -5.9942  -5.7446  -5.5748

     occupation numbers 
     1.0000   1.0000   1.0000   1.0000   1.0000   1.0000   1.0000   1.0000
     1.0000   1.0000   1.0000   1.0000   1.0000   1.0000   1.0000   1.0000
     1.0000   1.0000   1.0000   1.0000   1.0000   1.0000   1.0000   1.0000
     1.0000   1.0000   1.0000   1.0000   1.0000   1.0000

     highest occupied level (ev):    -5.5748

!    total energy              =    -235.23225111 Ry

     total all-electron energy =      -928.401366 Ry
     estimated scf accuracy    <       0.00000006 Ry

     The total energy is the sum of the following terms:
     one-electron contribution =    -776.17552807 Ry
     hartree contribution      =     396.80397247 Ry
     xc contribution           =     -64.75635163 Ry
     ewald contribution        =     282.93959987 Ry
     scf correction            =      -0.00073786 Ry
     one-center paw contrib.   =     -74.04320590 Ry
      -> PAW hartree energy AE =      10.02606563 Ry
      -> PAW hartree energy PS =     -10.01696985 Ry
      -> PAW xc energy AE      =     -10.80515966 Ry
      -> PAW xc energy PS      =       4.62554444 Ry
      -> total E_H with PAW    =     396.81306825 Ry
      -> total E_XC with PAW   =     -70.93596685 Ry

     iteration #  9     ecut=    60.00 Ry     beta= 0.70
     Davidson diagonalization with overlap
     ethr =  1.02E-10,  avg # of iterations =  5.0

     negative rho (up, down):  2.275E-04 0.000E+00

     total cpu time spent up to now is       17.9 secs

          k = 0.0000 0.0000 0.0000     band energies (ev):

   -20.8544 -20.7940 -18.2094 -18.2074 -18.1010 -18.0747 -14.7235 -14.6597
   -14.6363 -14.6229 -12.8524 -12.8428 -11.2918 -11.2916 -10.4088 -10.4033
   -10.0389 -10.0260  -9.9472  -9.9298  -8.8084  -8.4331  -7.9506  -7.9425
    -7.8416  -7.8386  -6.0698  -5.9942  -5.7447  -5.5747

     occupation numbers 
     1.0000   1.0000   1.0000   1.0000   1.0000   1.0000   1.0000   1.0000
     1.0000   1.0000   1.0000   1.0000   1.0000   1.0000   1.0000   1.0000
     1.0000   1.0000   1.0000   1.0000   1.0000   1.0000   1.0000   1.0000
     1.0000   1.0000   1.0000   1.0000   1.0000   1.0000

     highest occupied level (ev):    -5.5747

!    total energy              =    -235.23225114 Ry

     total all-electron energy =      -928.401366 Ry
     estimated scf accuracy    <       0.00000002 Ry

     The total energy is the sum of the following terms:
     one-electron contribution =    -776.17563643 Ry
     hartree contribution      =     396.80375300 Ry
     xc contribution           =     -64.75635384 Ry
     ewald contribution        =     282.93959987 Ry
     scf correction            =      -0.00041851 Ry
     one-center paw contrib.   =     -74.04319522 Ry
      -> PAW hartree energy AE =      10.02610140 Ry
      -> PAW hartree energy PS =     -10.01700564 Ry
      -> PAW xc energy AE      =     -10.80516816 Ry
      -> PAW xc energy PS      =       4.62555308 Ry
      -> total E_H with PAW    =     396.81284876 Ry
      -> total E_XC with PAW   =     -70.93596891 Ry

     iteration # 10     ecut=    60.00 Ry     beta= 0.70
     Davidson diagonalization with overlap
     ethr =  3.17E-11,  avg # of iterations =  5.0

     negative rho (up, down):  2.275E-04 0.000E+00

     total cpu time spent up to now is       18.6 secs

     End of self-consistent calculation

          k = 0.0000 0.0000 0.0000 (178925 PWs)   bands (ev):

   -20.8545 -20.7941 -18.2095 -18.2075 -18.1009 -18.0748 -14.7235 -14.6597
   -14.6364 -14.6230 -12.8524 -12.8428 -11.2918 -11.2916 -10.4088 -10.4035
   -10.0390 -10.0260  -9.9472  -9.9299  -8.8085  -8.4332  -7.9506  -7.9426
    -7.8416  -7.8386  -6.0698  -5.9943  -5.7448  -5.5748

     occupation numbers 
     1.0000   1.0000   1.0000   1.0000   1.0000   1.0000   1.0000   1.0000
     1.0000   1.0000   1.0000   1.0000   1.0000   1.0000   1.0000   1.0000
     1.0000   1.0000   1.0000   1.0000   1.0000   1.0000   1.0000   1.0000
     1.0000   1.0000   1.0000   1.0000   1.0000   1.0000

     highest occupied level (ev):    -5.5748

!    total energy              =    -235.23225114 Ry

     total all-electron energy =      -928.401366 Ry
     estimated scf accuracy    <          5.3E-09 Ry

     The total energy is the sum of the following terms:
     one-electron contribution =    -776.17590630 Ry
     hartree contribution      =     396.80360866 Ry
     xc contribution           =     -64.75635198 Ry
     ewald contribution        =     282.93959987 Ry
     one-center paw contrib.   =     -74.04320139 Ry
      -> PAW hartree energy AE =      10.02621836 Ry
      -> PAW hartree energy PS =     -10.01712244 Ry
      -> PAW xc energy AE      =     -10.80519678 Ry
      -> PAW xc energy PS      =       4.62558015 Ry
      -> total E_H with PAW    =     396.81270458 Ry
      -> total E_XC with PAW   =     -70.93596861 Ry

     convergence has been achieved in  10 iterations

     Writing output data file ./tmp/ben2.save/
 
     init_run     :      4.91s CPU      7.25s WALL (       1 calls)
     electrons    :      7.44s CPU      9.58s WALL (       1 calls)

     Called by init_run:
     wfcinit      :      0.15s CPU      1.00s WALL (       1 calls)
     wfcinit:atom :      0.00s CPU      0.00s WALL (       1 calls)
     wfcinit:wfcr :      0.14s CPU      0.99s WALL (       1 calls)
     potinit      :      0.20s CPU      0.46s WALL (       1 calls)
     hinit0       :      0.13s CPU      0.96s WALL (       1 calls)

     Called by electrons:
     c_bands      :      3.12s CPU      3.72s WALL (      10 calls)
     sum_band     :      1.49s CPU      1.78s WALL (      10 calls)
     v_of_rho     :      1.42s CPU      1.55s WALL (      11 calls)
     v_h          :      0.13s CPU      0.15s WALL (      11 calls)
     v_xc         :      1.29s CPU      1.40s WALL (      11 calls)
     newd         :      0.75s CPU      1.20s WALL (      11 calls)
     PAW_pot      :      0.22s CPU      0.42s WALL (      11 calls)
     mix_rho      :      0.26s CPU      0.38s WALL (      10 calls)

     Called by c_bands:
     init_us_2    :      0.03s CPU      0.04s WALL (      21 calls)
     cegterg      :      3.07s CPU      3.66s WALL (      10 calls)

     Called by sum_band:
     sum_band:wei :      0.00s CPU      0.00s WALL (      10 calls)
     sum_band:loo :      0.39s CPU      0.41s WALL (      10 calls)
     sum_band:buf :      0.00s CPU      0.00s WALL (      10 calls)
     sum_band:ini :      0.02s CPU      0.02s WALL (      10 calls)
     sum_band:cal :      0.04s CPU      0.04s WALL (      10 calls)
     sum_band:bec :      0.00s CPU      0.00s WALL (      10 calls)
     addusdens    :      0.92s CPU      1.18s WALL (      10 calls)
     addusd:skk   :      0.09s CPU      0.12s WALL (      20 calls)
     addusd:dgemm :      0.53s CPU      0.75s WALL (      20 calls)
     addusd:qvan2 :      0.22s CPU      0.22s WALL (      20 calls)

     Called by *egterg:
     cdiaghg      :      0.07s CPU      1.16s WALL (      52 calls)
     cegterg:over :      0.11s CPU      0.12s WALL (      42 calls)
     cegterg:upda :      0.05s CPU      0.05s WALL (      42 calls)
     cegterg:last :      0.11s CPU      0.11s WALL (      27 calls)
     h_psi        :      2.60s CPU      2.81s WALL (      53 calls)
     s_psi        :      0.18s CPU      0.18s WALL (      53 calls)
     g_psi        :      0.00s CPU      0.00s WALL (      42 calls)

     Called by h_psi:
     h_psi:calbec :      0.19s CPU      0.31s WALL (      53 calls)
     vloc_psi     :      2.21s CPU      2.28s WALL (      53 calls)
     add_vuspsi   :      0.19s CPU      0.21s WALL (      53 calls)

     General routines
     calbec       :      0.23s CPU      0.35s WALL (      63 calls)
     fft          :      1.17s CPU      2.06s WALL (     141 calls)
     ffts         :      0.06s CPU      0.08s WALL (      21 calls)
     fftw         :      2.36s CPU      2.42s WALL (    2414 calls)
     interpolate  :      0.14s CPU      0.15s WALL (      11 calls)
 
     Parallel routines
     fft_scatt_xy :      0.27s CPU      0.28s WALL (    2576 calls)
     fft_scatt_yz :      2.33s CPU      2.52s WALL (    2576 calls)

     PAW routines
     PAW_pot      :      0.22s CPU      0.42s WALL (      11 calls)
 
     PWSCF        :     13.25s CPU     20.24s WALL

 
   This run was terminated on:   3:56:43  23Dec2021            

=------------------------------------------------------------------------------=
   JOB DONE.
=------------------------------------------------------------------------------=
